LAMMPS (29 Aug 2024)
OMP_NUM_THREADS environment is not set. Defaulting to 1 thread. (src/comm.cpp:98)
  using 1 OpenMP thread(s) per MPI task
package omp 32
set 32 OpenMP thread(s) per MPI task
using multi-threaded neighbor list subroutines
#test sequence

shell rm vid_out.mp4
WARNING: Shell command 'rm vid_out.mp4' failed with error 'No such file or directory' (src/input.cpp:1288)
shell rmdir img
shell mkdir img

units real
atom_style full


bond_style harmonic/omp
angle_style harmonic/omp
dihedral_style fourier/omp
improper_style none
special_bonds amber
pair_style lj/charmmfsw/coul/long 10.0 12.0
Switching to CHARMM coulomb energy conversion constant (src/KSPACE/pair_lj_charmmfsw_coul_long.cpp:63)
#pair_style lj/charmmfsw/coul/charmmfsh 10.0 12.0
pair_modify mix arithmetic
kspace_style pppm 1.0e-6
kspace_modify mesh 25 25 25
#kspace_modify compute no
boundary p p p


thermo 50 #lammps will print thermo data every N steps

neighbor 2.0 bin
neigh_modify delay 5 #neigbor and neigh_modify are performance-critical


timestep 1.0
#with units=real this equals fs, typical length


read_data ../data/Barr2_MOR_noTRV-solvated-data.in
Reading data file ...
  orthogonal box = (0 0 0) to (120.3583 108.63956 143.99538)
  2 by 2 by 2 MPI processor grid
  reading atoms ...
  161929 atoms
  scanning bonds ...
  4 = max bonds/atom
  scanning angles ...
  6 = max angles/atom
  scanning dihedrals ...
  18 = max dihedrals/atom
  orthogonal box = (0 0 0) to (120.3583 108.63956 143.99538)
  2 by 2 by 2 MPI processor grid
  reading bonds ...
  162061 bonds
  reading angles ...
  20543 angles
  reading dihedrals ...
  32326 dihedrals
Finding 1-2 1-3 1-4 neighbors ...
  special bond factors lj:    0        0        0.5     
  special bond factors coul:  0        0        0.8333333333333334
     4 = max # of 1-2 neighbors
     9 = max # of 1-3 neighbors
    19 = max # of 1-4 neighbors
    21 = max # of special neighbors
  special bonds CPU = 0.012 seconds
  read_data CPU = 1.490 seconds


thermo_style multi



group water molecule >= 2
150737 atoms in group water
group protein molecule 1
11192 atoms in group protein

dump d0 protein image 5 ./img/*.jpg type type size 1024 1024 zoom 2.0
dump_modify d0 pad 9

run 0

CITE-CITE-CITE-CITE-CITE-CITE-CITE-CITE-CITE-CITE-CITE-CITE-CITE

Your simulation uses code contributions which should be cited:

- Type Label Framework: https://doi.org/10.1021/acs.jpcb.3c08419

@Article{Gissinger24,
 author = {Jacob R. Gissinger, Ilia Nikiforov, Yaser Afshar, Brendon Waters, Moon-ki Choi, Daniel S. Karls, Alexander Stukowski, Wonpil Im, Hendrik Heinz, Axel Kohlmeyer, and Ellad B. Tadmor},
 title = {Type Label Framework for Bonded Force Fields in LAMMPS},
 journal = {J. Phys. Chem. B},
 year =    2024,
 volume =  128,
 number =  13,
 pages =   {3282–-3297}
}

CITE-CITE-CITE-CITE-CITE-CITE-CITE-CITE-CITE-CITE-CITE-CITE-CITE

WARNING: No fixes with time integration, atoms won't move (src/verlet.cpp:60)
PPPM initialization ...
WARNING: System is not charge neutral, net charge = 2 (src/kspace.cpp:327)
  using 12-bit tables for long-range coulomb (src/kspace.cpp:342)
  G vector (1/distance) = 0.15670268
  grid = 25 25 25
  stencil order = 5
  estimated absolute RMS force accuracy = 0.7680993
  estimated relative force accuracy = 0.0023130533
  using double precision FFTW3
  3d grid and FFT values/proc = 5832 2500
Generated 153 of 153 mixed pair_coeff terms from arithmetic mixing rule
Last active /omp style is kspace_style pppm/omp
Neighbor list info ...
  update: every = 1 steps, delay = 5 steps, check = yes
  max neighbors/atom: 2000, page size: 100000
  master list distance cutoff = 14
  ghost atom cutoff = 14
  binsize = 7, bins = 18 16 21
  1 neighbor lists, perpetual/occasional/extra = 1 0 0
  (1) pair lj/charmmfsw/coul/long, perpetual
      attributes: half, newton on, omp
      pair build: half/bin/newton/omp
      stencil: half/bin/3d
      bin: standard
Per MPI rank memory allocation (min/avg/max) = 169.3 | 171.4 | 173.2 Mbytes
------------ Step              0 ----- CPU =            0 (sec) -------------
TotEng   =   -455424.1478 KinEng   =         0.0000 Temp     =         0.0000 
PotEng   =   -455424.1478 E_bond   =      2133.6104 E_angle  =      5782.7453 
E_dihed  =      8969.3154 E_impro  =         0.0000 E_vdwl   =     53328.7411 
E_coul   =   1047361.7077 E_long   =  -1573000.2676 Press    =     12546.7314
Loop time of 9.02625e-06 on 256 procs for 0 steps with 161929 atoms

90.0% CPU use with 8 MPI tasks x 32 OpenMP threads

MPI task timing breakdown:
Section |  min time  |  avg time  |  max time  |%varavg| %total
---------------------------------------------------------------
Pair    | 0          | 0          | 0          |   0.0 |  0.00
Bond    | 0          | 0          | 0          |   0.0 |  0.00
Kspace  | 0          | 0          | 0          |   0.0 |  0.00
Neigh   | 0          | 0          | 0          |   0.0 |  0.00
Comm    | 0          | 0          | 0          |   0.0 |  0.00
Output  | 0          | 0          | 0          |   0.0 |  0.00
Modify  | 0          | 0          | 0          |   0.0 |  0.00
Other   |            | 9.026e-06  |            |       |100.00

Nlocal:        20241.1 ave       20816 max       19811 min
Histogram: 2 1 0 0 2 1 1 0 0 1
Nghost:        39800.1 ave       40037 max       39561 min
Histogram: 1 0 1 1 1 2 0 0 0 2
Neighs:    1.01786e+07 ave 1.05353e+07 max 9.61799e+06 min
Histogram: 2 0 0 1 0 0 1 0 1 3

Total # of neighbors = 81428701
Ave neighs/atom = 502.86669
Ave special neighs/atom = 2.6209388
Neighbor list builds = 0
Dangerous builds = 0
fix 1 protein setforce 0.0 0.0 0.0
minimize 0. 0. 300 1000000
Switching to 'neigh_modify every 1 delay 0 check yes' setting during minimization
PPPM initialization ...
  using 12-bit tables for long-range coulomb (src/kspace.cpp:342)
  G vector (1/distance) = 0.15670268
  grid = 25 25 25
  stencil order = 5
  estimated absolute RMS force accuracy = 0.7680993
  estimated relative force accuracy = 0.0023130533
  using double precision FFTW3
  3d grid and FFT values/proc = 5832 2500
Generated 153 of 153 mixed pair_coeff terms from arithmetic mixing rule
Last active /omp style is kspace_style pppm/omp
Per MPI rank memory allocation (min/avg/max) = 174.8 | 176.9 | 178.7 Mbytes
------------ Step              0 ----- CPU =            0 (sec) -------------
TotEng   =   -455424.1478 KinEng   =         0.0000 Temp     =         0.0000 
PotEng   =   -455424.1478 E_bond   =      2133.6104 E_angle  =      5782.7453 
E_dihed  =      8969.3154 E_impro  =         0.0000 E_vdwl   =     53328.7411 
E_coul   =   1047361.7077 E_long   =  -1573000.2676 Press    =     12546.7314
------------ Step             50 ----- CPU =     26.80119 (sec) -------------
TotEng   =   -578855.0818 KinEng   =         0.0000 Temp     =         0.0000 
PotEng   =   -578855.0818 E_bond   =     37791.8466 E_angle  =      5782.7453 
E_dihed  =      8969.3154 E_impro  =         0.0000 E_vdwl   =     70369.5430 
E_coul   =    873117.7464 E_long   =  -1574886.2784 Press    =     -8263.6172
------------ Step            100 ----- CPU =     47.62635 (sec) -------------
TotEng   =   -597946.2496 KinEng   =         0.0000 Temp     =         0.0000 
PotEng   =   -597946.2496 E_bond   =     42148.1097 E_angle  =      5782.7453 
E_dihed  =      8969.3154 E_impro  =         0.0000 E_vdwl   =     87705.1504 
E_coul   =    832512.5190 E_long   =  -1575064.0893 Press    =     -7241.4048
------------ Step            150 ----- CPU =     78.99263 (sec) -------------
TotEng   =   -607421.3406 KinEng   =         0.0000 Temp     =         0.0000 
PotEng   =   -607421.3406 E_bond   =     44500.5779 E_angle  =      5782.7453 
E_dihed  =      8969.3154 E_impro  =         0.0000 E_vdwl   =     98659.3892 
E_coul   =    809830.2961 E_long   =  -1575163.6644 Press    =     -6194.5214
------------ Step            200 ----- CPU =     108.2317 (sec) -------------
TotEng   =   -612994.8405 KinEng   =         0.0000 Temp     =         0.0000 
PotEng   =   -612994.8405 E_bond   =     45884.5167 E_angle  =      5782.7453 
E_dihed  =      8969.3154 E_impro  =         0.0000 E_vdwl   =    104672.8132 
E_coul   =    796908.7223 E_long   =  -1575212.9535 Press    =     -5826.9398
------------ Step            250 ----- CPU =     135.9085 (sec) -------------
TotEng   =   -618674.2649 KinEng   =         0.0000 Temp     =         0.0000 
PotEng   =   -618674.2649 E_bond   =     47215.2922 E_angle  =      5782.7453 
E_dihed  =      8969.3154 E_impro  =         0.0000 E_vdwl   =    110731.2502 
E_coul   =    783876.8401 E_long   =  -1575249.7081 Press    =     -5381.6536
------------ Step            300 ----- CPU =     176.3792 (sec) -------------
TotEng   =   -621353.7050 KinEng   =         0.0000 Temp     =         0.0000 
PotEng   =   -621353.7050 E_bond   =     47840.4491 E_angle  =      5782.7453 
E_dihed  =      8969.3154 E_impro  =         0.0000 E_vdwl   =    114034.2454 
E_coul   =    777292.6273 E_long   =  -1575273.0876 Press    =     -5032.6840
Loop time of 176.526 on 256 procs for 300 steps with 161929 atoms

77.0% CPU use with 8 MPI tasks x 32 OpenMP threads

Minimization stats:
  Stopping criterion = max iterations
  Energy initial, next-to-last, final = 
     -455424.147766715  -621275.777804835  -621353.705004427
  Force two-norm initial, final = 8540.298 526.09823
  Force max component initial, final = 61.114558 175.41628
  Final line search alpha, max atom move = 0.0023572377 0.41349788
  Iterations, force evaluations = 300 432

MPI task timing breakdown:
Section |  min time  |  avg time  |  max time  |%varavg| %total
---------------------------------------------------------------
Pair    | 105.01     | 110.75     | 114.49     |  37.1 | 62.74
Bond    | 4.8457     | 5.8678     | 7.0681     |  29.4 |  3.32
Kspace  | 37.087     | 42.112     | 49.179     |  72.4 | 23.86
Neigh   | 1.6212     | 1.7728     | 1.8278     |   6.3 |  1.00
Comm    | 4.5965     | 4.9265     | 5.1696     |   8.2 |  2.79
Output  | 4.507      | 5.1268     | 6.1534     |  23.1 |  2.90
Modify  | 2.0105     | 2.0742     | 2.1582     |   3.6 |  1.18
Other   |            | 3.892      |            |       |  2.21

Nlocal:        20241.1 ave       20809 max       19800 min
Histogram: 2 1 0 0 0 2 2 0 0 1
Nghost:        39760.6 ave       40093 max       39379 min
Histogram: 1 0 0 2 0 3 0 0 0 2
Neighs:    1.02013e+07 ave 1.05958e+07 max 9.59271e+06 min
Histogram: 2 0 0 1 0 0 1 0 1 3

Total # of neighbors = 81610798
Ave neighs/atom = 503.99124
Ave special neighs/atom = 2.6209388
Neighbor list builds = 6
Dangerous builds = 0


dump_modify d0 boxcolor blue
dump_modify d0 every 50
kspace_modify compute yes

unfix 1
fix 3 all nvt temp 300.0 300.0 100.0
run 30000
PPPM initialization ...
  using 12-bit tables for long-range coulomb (src/kspace.cpp:342)
  G vector (1/distance) = 0.15670268
  grid = 25 25 25
  stencil order = 5
  estimated absolute RMS force accuracy = 0.7680993
  estimated relative force accuracy = 0.0023130533
  using double precision FFTW3
  3d grid and FFT values/proc = 5832 2500
Generated 153 of 153 mixed pair_coeff terms from arithmetic mixing rule
Last active /omp style is kspace_style pppm/omp
Per MPI rank memory allocation (min/avg/max) = 170.3 | 172.5 | 174.2 Mbytes
------------ Step            300 ----- CPU =            0 (sec) -------------
TotEng   =   -621353.7050 KinEng   =         0.0000 Temp     =         0.0000 
PotEng   =   -621353.7050 E_bond   =     47840.4491 E_angle  =      5782.7453 
E_dihed  =      8969.3154 E_impro  =         0.0000 E_vdwl   =    114034.2454 
E_coul   =    777292.6273 E_long   =  -1575273.0876 Press    =     -5032.6840
------------ Step            350 ----- CPU =      16.1847 (sec) -------------
TotEng   =   -621026.4644 KinEng   =      6546.4000 Temp     =        13.5627 
PotEng   =   -627572.8644 E_bond   =     47369.6647 E_angle  =      3871.9766 
E_dihed  =      8496.5049 E_impro  =         0.0000 E_vdwl   =    114115.7830 
E_coul   =    774133.5301 E_long   =  -1575560.3238 Press    =     -4910.9428
------------ Step            400 ----- CPU =     31.73731 (sec) -------------
TotEng   =   -620370.9784 KinEng   =      9087.0194 Temp     =        18.8263 
PotEng   =   -629457.9978 E_bond   =     48151.4482 E_angle  =      4078.4200 
E_dihed  =      8636.1343 E_impro  =         0.0000 E_vdwl   =    117382.1972 
E_coul   =    768016.4644 E_long   =  -1575722.6620 Press    =     -4898.9196
------------ Step            450 ----- CPU =     45.54698 (sec) -------------
TotEng   =   -619137.8559 KinEng   =     11773.9831 Temp     =        24.3931 
PotEng   =   -630911.8390 E_bond   =     49007.8123 E_angle  =      4226.2113 
E_dihed  =      8806.9757 E_impro  =         0.0000 E_vdwl   =    122326.8068 
E_coul   =    760547.7027 E_long   =  -1575827.3479 Press    =     -4061.8121
------------ Step            500 ----- CPU =     65.14079 (sec) -------------
TotEng   =   -617561.9500 KinEng   =     14189.1187 Temp     =        29.3967 
PotEng   =   -631751.0686 E_bond   =     49949.1903 E_angle  =      4407.5798 
E_dihed  =      8846.6362 E_impro  =         0.0000 E_vdwl   =    126897.2780 
E_coul   =    754014.4829 E_long   =  -1575866.2357 Press    =     -3541.7392
------------ Step            550 ----- CPU =     84.81484 (sec) -------------
TotEng   =   -616088.9420 KinEng   =     16142.6070 Temp     =        33.4439 
PotEng   =   -632231.5490 E_bond   =     50665.1992 E_angle  =      4438.7142 
E_dihed  =      8847.8265 E_impro  =         0.0000 E_vdwl   =    130421.5875 
E_coul   =    749304.3667 E_long   =  -1575909.2431 Press    =     -3004.6031
------------ Step            600 ----- CPU =     104.8936 (sec) -------------
TotEng   =   -614622.5093 KinEng   =     18114.2753 Temp     =        37.5288 
PotEng   =   -632736.7846 E_bond   =     51212.0090 E_angle  =      4453.4437 
E_dihed  =      8946.5358 E_impro  =         0.0000 E_vdwl   =    132949.3117 
E_coul   =    745631.0383 E_long   =  -1575929.1231 Press    =     -2671.2139
------------ Step            650 ----- CPU =     124.1065 (sec) -------------
TotEng   =   -612814.9491 KinEng   =     19885.5894 Temp     =        41.1986 
PotEng   =   -632700.5384 E_bond   =     51762.7336 E_angle  =      4655.2694 
E_dihed  =      9014.4540 E_impro  =         0.0000 E_vdwl   =    134798.8611 
E_coul   =    743036.2014 E_long   =  -1575968.0579 Press    =     -2400.4132
------------ Step            700 ----- CPU =     138.7205 (sec) -------------
TotEng   =   -611009.7132 KinEng   =     21799.7702 Temp     =        45.1643 
PotEng   =   -632809.4833 E_bond   =     52123.7683 E_angle  =      4944.9797 
E_dihed  =      9117.8799 E_impro  =         0.0000 E_vdwl   =    135849.0337 
E_coul   =    741133.9127 E_long   =  -1575979.0577 Press    =     -2236.7926
------------ Step            750 ----- CPU =     153.5159 (sec) -------------
TotEng   =   -608834.4313 KinEng   =     23753.0325 Temp     =        49.2111 
PotEng   =   -632587.4637 E_bond   =     52449.0306 E_angle  =      5030.0082 
E_dihed  =      9197.5865 E_impro  =         0.0000 E_vdwl   =    137046.9841 
E_coul   =    739688.9603 E_long   =  -1576000.0334 Press    =     -1917.1448
------------ Step            800 ----- CPU =     167.9268 (sec) -------------
TotEng   =   -606488.1923 KinEng   =     25638.6203 Temp     =        53.1176 
PotEng   =   -632126.8127 E_bond   =     52797.8632 E_angle  =      5223.5714 
E_dihed  =      9255.3358 E_impro  =         0.0000 E_vdwl   =    138160.7078 
E_coul   =    738458.3990 E_long   =  -1576022.6898 Press    =     -1849.5246
------------ Step            850 ----- CPU =      182.806 (sec) -------------
TotEng   =   -603951.8974 KinEng   =     27877.7610 Temp     =        57.7566 
PotEng   =   -631829.6584 E_bond   =     53215.0150 E_angle  =      5524.3240 
E_dihed  =      9288.3781 E_impro  =         0.0000 E_vdwl   =    139837.3398 
E_coul   =    736324.0856 E_long   =  -1576018.8009 Press    =     -1503.9044
------------ Step            900 ----- CPU =     197.5228 (sec) -------------
TotEng   =   -601027.1477 KinEng   =     30177.5446 Temp     =        62.5212 
PotEng   =   -631204.6923 E_bond   =     53531.7373 E_angle  =      5614.9115 
E_dihed  =      9366.7163 E_impro  =         0.0000 E_vdwl   =    141330.1644 
E_coul   =    734969.2908 E_long   =  -1576017.5125 Press    =     -1079.8395
------------ Step            950 ----- CPU =     212.4788 (sec) -------------
TotEng   =   -597723.2664 KinEng   =     32363.8964 Temp     =        67.0509 
PotEng   =   -630087.1628 E_bond   =     53940.2627 E_angle  =      5826.5786 
E_dihed  =      9440.3253 E_impro  =         0.0000 E_vdwl   =    142575.7564 
E_coul   =    734157.3894 E_long   =  -1576027.4751 Press    =      -976.3578
------------ Step           1000 ----- CPU =     226.4009 (sec) -------------
TotEng   =   -594000.3939 KinEng   =     34655.2060 Temp     =        71.7980 
PotEng   =   -628655.6000 E_bond   =     54275.5211 E_angle  =      5986.5417 
E_dihed  =      9564.9788 E_impro  =         0.0000 E_vdwl   =    144151.3711 
E_coul   =    733411.1362 E_long   =  -1576045.1488 Press    =      -514.1737
------------ Step           1050 ----- CPU =     241.1035 (sec) -------------
TotEng   =   -590250.7227 KinEng   =     37304.0313 Temp     =        77.2858 
PotEng   =   -627554.7541 E_bond   =     54611.0518 E_angle  =      6215.7729 
E_dihed  =      9585.5132 E_impro  =         0.0000 E_vdwl   =    145906.7052 
E_coul   =    732162.2810 E_long   =  -1576036.0781 Press    =      -248.4235
------------ Step           1100 ----- CPU =     254.9995 (sec) -------------
TotEng   =   -585982.0302 KinEng   =     39899.0182 Temp     =        82.6620 
PotEng   =   -625881.0484 E_bond   =     54884.9946 E_angle  =      6467.4127 
E_dihed  =      9756.1047 E_impro  =         0.0000 E_vdwl   =    147255.3956 
E_coul   =    731791.2891 E_long   =  -1576036.2452 Press    =        40.9626
------------ Step           1150 ----- CPU =       269.52 (sec) -------------
TotEng   =   -581604.7951 KinEng   =     42544.3161 Temp     =        88.1425 
PotEng   =   -624149.1112 E_bond   =     55146.4640 E_angle  =      6762.4837 
E_dihed  =      9732.9424 E_impro  =         0.0000 E_vdwl   =    148462.4597 
E_coul   =    731792.4839 E_long   =  -1576045.9448 Press    =       475.8884
------------ Step           1200 ----- CPU =      283.736 (sec) -------------
TotEng   =   -576906.8864 KinEng   =     45358.9580 Temp     =        93.9738 
PotEng   =   -622265.8444 E_bond   =     55457.3844 E_angle  =      6955.5219 
E_dihed  =      9906.3519 E_impro  =         0.0000 E_vdwl   =    149020.7424 
E_coul   =    732439.5142 E_long   =  -1576045.3592 Press    =       550.0383
------------ Step           1250 ----- CPU =     298.2054 (sec) -------------
TotEng   =   -571789.7996 KinEng   =     48455.1070 Temp     =       100.3883 
PotEng   =   -620244.9066 E_bond   =     55773.4040 E_angle  =      7205.7649 
E_dihed  =      9901.1774 E_impro  =         0.0000 E_vdwl   =    149694.3701 
E_coul   =    733232.2369 E_long   =  -1576051.8598 Press    =       865.2297
------------ Step           1300 ----- CPU =     312.4334 (sec) -------------
TotEng   =   -566237.7486 KinEng   =     51544.8814 Temp     =       106.7897 
PotEng   =   -617782.6300 E_bond   =     56100.0497 E_angle  =      7475.3907 
E_dihed  =     10076.2830 E_impro  =         0.0000 E_vdwl   =    150349.0233 
E_coul   =    734278.0940 E_long   =  -1576061.4706 Press    =      1147.1806
------------ Step           1350 ----- CPU =     327.4747 (sec) -------------
TotEng   =   -560386.4191 KinEng   =     54625.3435 Temp     =       113.1717 
PotEng   =   -615011.7625 E_bond   =     56225.2977 E_angle  =      7849.0826 
E_dihed  =     10200.4021 E_impro  =         0.0000 E_vdwl   =    150783.9664 
E_coul   =    735984.8157 E_long   =  -1576055.3270 Press    =      1405.5534
------------ Step           1400 ----- CPU =     342.5463 (sec) -------------
TotEng   =   -554452.7547 KinEng   =     57866.4060 Temp     =       119.8865 
PotEng   =   -612319.1607 E_bond   =     56352.7902 E_angle  =      8267.2342 
E_dihed  =     10201.1798 E_impro  =         0.0000 E_vdwl   =    151037.6062 
E_coul   =    737864.5466 E_long   =  -1576042.5178 Press    =      1636.6200
------------ Step           1450 ----- CPU =     358.0059 (sec) -------------
TotEng   =   -548107.6443 KinEng   =     61587.9867 Temp     =       127.5968 
PotEng   =   -609695.6310 E_bond   =     56453.4385 E_angle  =      8491.2276 
E_dihed  =     10360.2492 E_impro  =         0.0000 E_vdwl   =    151118.1157 
E_coul   =    739944.5936 E_long   =  -1576063.2556 Press    =      1886.6203
------------ Step           1500 ----- CPU =     373.4575 (sec) -------------
TotEng   =   -541423.5374 KinEng   =     64810.6906 Temp     =       134.2735 
PotEng   =   -606234.2280 E_bond   =     56689.2059 E_angle  =      8998.8645 
E_dihed  =     10481.0632 E_impro  =         0.0000 E_vdwl   =    151213.1626 
E_coul   =    742433.7832 E_long   =  -1576050.3074 Press    =      2042.5502
------------ Step           1550 ----- CPU =     388.8527 (sec) -------------
TotEng   =   -534222.4263 KinEng   =     68732.8088 Temp     =       142.3993 
PotEng   =   -602955.2351 E_bond   =     56543.4355 E_angle  =      9211.3901 
E_dihed  =     10674.9267 E_impro  =         0.0000 E_vdwl   =    150740.4720 
E_coul   =    745933.2000 E_long   =  -1576058.6594 Press    =      2371.0569
------------ Step           1600 ----- CPU =     404.5201 (sec) -------------
TotEng   =   -526695.4101 KinEng   =     72171.2021 Temp     =       149.5229 
PotEng   =   -598866.6122 E_bond   =     56697.2312 E_angle  =      9736.7222 
E_dihed  =     10826.7203 E_impro  =         0.0000 E_vdwl   =    149952.3324 
E_coul   =    749966.4313 E_long   =  -1576046.0495 Press    =      2371.8792
------------ Step           1650 ----- CPU =     419.6687 (sec) -------------
TotEng   =   -518990.2083 KinEng   =     76465.9869 Temp     =       158.4207 
PotEng   =   -595456.1952 E_bond   =     56766.4452 E_angle  =      9841.8003 
E_dihed  =     10841.1465 E_impro  =         0.0000 E_vdwl   =    148810.0801 
E_coul   =    754355.2471 E_long   =  -1576070.9144 Press    =      2529.9836
------------ Step           1700 ----- CPU =     434.9235 (sec) -------------
TotEng   =   -510853.7403 KinEng   =     80806.3537 Temp     =       167.4130 
PotEng   =   -591660.0939 E_bond   =     57037.9528 E_angle  =     10306.0928 
E_dihed  =     10963.8005 E_impro  =         0.0000 E_vdwl   =    148565.7906 
E_coul   =    757528.6663 E_long   =  -1576062.3970 Press    =      2916.0128
------------ Step           1750 ----- CPU =     450.6081 (sec) -------------
TotEng   =   -502712.3896 KinEng   =     84887.2473 Temp     =       175.8677 
PotEng   =   -587599.6369 E_bond   =     56984.0290 E_angle  =     10855.4011 
E_dihed  =     11059.7115 E_impro  =         0.0000 E_vdwl   =    147247.1405 
E_coul   =    762309.9289 E_long   =  -1576055.8479 Press    =      2842.7029
------------ Step           1800 ----- CPU =     465.8042 (sec) -------------
TotEng   =   -494183.5412 KinEng   =     89355.8418 Temp     =       185.1257 
PotEng   =   -583539.3829 E_bond   =     56887.3395 E_angle  =     11199.9145 
E_dihed  =     11155.7627 E_impro  =         0.0000 E_vdwl   =    145597.8228 
E_coul   =    767695.0051 E_long   =  -1576075.2275 Press    =      3097.1839
------------ Step           1850 ----- CPU =     482.1586 (sec) -------------
TotEng   =   -485360.1110 KinEng   =     93041.1996 Temp     =       192.7609 
PotEng   =   -578401.3106 E_bond   =     57020.2791 E_angle  =     11882.0639 
E_dihed  =     11410.8426 E_impro  =         0.0000 E_vdwl   =    144821.0621 
E_coul   =    772529.1607 E_long   =  -1576064.7191 Press    =      3195.6472
------------ Step           1900 ----- CPU =     498.7874 (sec) -------------
TotEng   =   -476262.3942 KinEng   =     97709.3809 Temp     =       202.4324 
PotEng   =   -573971.7751 E_bond   =     57039.7154 E_angle  =     11954.4562 
E_dihed  =     11569.4296 E_impro  =         0.0000 E_vdwl   =    143269.0907 
E_coul   =    778249.3033 E_long   =  -1576053.7704 Press    =      3370.8240
------------ Step           1950 ----- CPU =     514.8762 (sec) -------------
TotEng   =   -467221.1365 KinEng   =    102108.0612 Temp     =       211.5455 
PotEng   =   -569329.1978 E_bond   =     56970.9673 E_angle  =     12765.8541 
E_dihed  =     11650.7136 E_impro  =         0.0000 E_vdwl   =    141552.9652 
E_coul   =    783791.9665 E_long   =  -1576061.6644 Press    =      3412.8491
------------ Step           2000 ----- CPU =     532.0391 (sec) -------------
TotEng   =   -457841.2592 KinEng   =    106927.2201 Temp     =       221.5297 
PotEng   =   -564768.4793 E_bond   =     57080.0167 E_angle  =     12908.6498 
E_dihed  =     11701.4410 E_impro  =         0.0000 E_vdwl   =    139825.9329 
E_coul   =    789767.5794 E_long   =  -1576052.0991 Press    =      3507.6442
------------ Step           2050 ----- CPU =     547.9899 (sec) -------------
TotEng   =   -448491.0706 KinEng   =    111271.9171 Temp     =       230.5310 
PotEng   =   -559762.9877 E_bond   =     56980.0562 E_angle  =     13492.6155 
E_dihed  =     11874.1365 E_impro  =         0.0000 E_vdwl   =    138282.8102 
E_coul   =    795664.9299 E_long   =  -1576057.5361 Press    =      3593.3522
------------ Step           2100 ----- CPU =     564.0376 (sec) -------------
TotEng   =   -439078.2370 KinEng   =    115903.0816 Temp     =       240.1257 
PotEng   =   -554981.3186 E_bond   =     57000.4025 E_angle  =     14045.4560 
E_dihed  =     12031.6903 E_impro  =         0.0000 E_vdwl   =    135932.2972 
E_coul   =    802047.4327 E_long   =  -1576038.5973 Press    =      3654.6789
------------ Step           2150 ----- CPU =     580.6694 (sec) -------------
TotEng   =   -429775.7129 KinEng   =    119834.8251 Temp     =       248.2715 
PotEng   =   -549610.5380 E_bond   =     56897.8261 E_angle  =     14610.9355 
E_dihed  =     12180.6706 E_impro  =         0.0000 E_vdwl   =    134174.3639 
E_coul   =    808566.1532 E_long   =  -1576040.4874 Press    =      3773.3158
------------ Step           2200 ----- CPU =     596.9805 (sec) -------------
TotEng   =   -420505.4641 KinEng   =    123903.9567 Temp     =       256.7018 
PotEng   =   -544409.4208 E_bond   =     57021.2502 E_angle  =     14838.0988 
E_dihed  =     12359.9851 E_impro  =         0.0000 E_vdwl   =    132264.1692 
E_coul   =    815144.7069 E_long   =  -1576037.6309 Press    =      3774.4029
------------ Step           2250 ----- CPU =     613.2764 (sec) -------------
TotEng   =   -411622.2759 KinEng   =    128081.8050 Temp     =       265.3574 
PotEng   =   -539704.0809 E_bond   =     56889.6843 E_angle  =     15452.8880 
E_dihed  =     12281.5199 E_impro  =         0.0000 E_vdwl   =    131065.6893 
E_coul   =    820623.3078 E_long   =  -1576017.1702 Press    =      4077.9124
------------ Step           2300 ----- CPU =     629.3959 (sec) -------------
TotEng   =   -403012.5923 KinEng   =    131487.1847 Temp     =       272.4126 
PotEng   =   -534499.7770 E_bond   =     56940.5223 E_angle  =     16070.7509 
E_dihed  =     12590.5522 E_impro  =         0.0000 E_vdwl   =    129951.0749 
E_coul   =    825979.0341 E_long   =  -1576031.7114 Press    =      4128.1108
------------ Step           2350 ----- CPU =     645.8474 (sec) -------------
TotEng   =   -394873.9935 KinEng   =    134820.2391 Temp     =       279.3179 
PotEng   =   -529694.2326 E_bond   =     57414.4961 E_angle  =     16097.2628 
E_dihed  =     12716.3073 E_impro  =         0.0000 E_vdwl   =    128537.6578 
E_coul   =    831558.4795 E_long   =  -1576018.4360 Press    =      4125.4759
------------ Step           2400 ----- CPU =     661.8009 (sec) -------------
TotEng   =   -387069.8672 KinEng   =    138182.4570 Temp     =       286.2837 
PotEng   =   -525252.3242 E_bond   =     57361.4558 E_angle  =     16648.6367 
E_dihed  =     12701.1513 E_impro  =         0.0000 E_vdwl   =    127161.5584 
E_coul   =    836884.4751 E_long   =  -1576009.6016 Press    =      4266.3721
------------ Step           2450 ----- CPU =      678.593 (sec) -------------
TotEng   =   -380332.7593 KinEng   =    141503.7541 Temp     =       293.1647 
PotEng   =   -521836.5135 E_bond   =     57268.6287 E_angle  =     16820.8053 
E_dihed  =     12852.7408 E_impro  =         0.0000 E_vdwl   =    125850.8800 
E_coul   =    841377.4919 E_long   =  -1576007.0602 Press    =      4345.3491
------------ Step           2500 ----- CPU =     694.9343 (sec) -------------
TotEng   =   -374122.2648 KinEng   =    143613.7724 Temp     =       297.5362 
PotEng   =   -517736.0372 E_bond   =     57225.2789 E_angle  =     17245.7155 
E_dihed  =     12728.5794 E_impro  =         0.0000 E_vdwl   =    124394.9812 
E_coul   =    846684.1591 E_long   =  -1576014.7513 Press    =      4407.4270
------------ Step           2550 ----- CPU =     710.9657 (sec) -------------
TotEng   =   -368978.5290 KinEng   =    145286.7231 Temp     =       301.0022 
PotEng   =   -514265.2520 E_bond   =     57413.4167 E_angle  =     17357.3710 
E_dihed  =     12857.9312 E_impro  =         0.0000 E_vdwl   =    122839.5054 
E_coul   =    851264.3046 E_long   =  -1575997.7810 Press    =      4507.7333
------------ Step           2600 ----- CPU =     728.2669 (sec) -------------
TotEng   =   -364734.8830 KinEng   =    146111.1204 Temp     =       302.7102 
PotEng   =   -510846.0034 E_bond   =     57355.5310 E_angle  =     17921.1695 
E_dihed  =     12911.2832 E_impro  =         0.0000 E_vdwl   =    122159.9685 
E_coul   =    854794.2071 E_long   =  -1575988.1627 Press    =      4457.5660
------------ Step           2650 ----- CPU =       744.69 (sec) -------------
TotEng   =   -361866.4271 KinEng   =    146726.0751 Temp     =       303.9842 
PotEng   =   -508592.5022 E_bond   =     57255.5198 E_angle  =     18324.7173 
E_dihed  =     12956.7982 E_impro  =         0.0000 E_vdwl   =    121040.4557 
E_coul   =    857813.9674 E_long   =  -1575983.9605 Press    =      4590.5684
------------ Step           2700 ----- CPU =     761.1052 (sec) -------------
TotEng   =   -359862.2395 KinEng   =    146686.6004 Temp     =       303.9024 
PotEng   =   -506548.8398 E_bond   =     57114.7349 E_angle  =     18255.1319 
E_dihed  =     13156.2184 E_impro  =         0.0000 E_vdwl   =    120672.9264 
E_coul   =    860232.6066 E_long   =  -1575980.4581 Press    =      4569.8293
------------ Step           2750 ----- CPU =     777.3682 (sec) -------------
TotEng   =   -359092.1808 KinEng   =    146439.1478 Temp     =       303.3898 
PotEng   =   -505531.3286 E_bond   =     57390.0443 E_angle  =     18149.0182 
E_dihed  =     13188.0807 E_impro  =         0.0000 E_vdwl   =    119565.5752 
E_coul   =    862165.3679 E_long   =  -1575989.4149 Press    =      4585.1543
------------ Step           2800 ----- CPU =     794.5829 (sec) -------------
TotEng   =   -358955.8047 KinEng   =    145704.7588 Temp     =       301.8683 
PotEng   =   -504660.5634 E_bond   =     57229.0148 E_angle  =     18293.2032 
E_dihed  =     13145.2385 E_impro  =         0.0000 E_vdwl   =    119135.0557 
E_coul   =    863533.7727 E_long   =  -1575996.8484 Press    =      4463.4062
------------ Step           2850 ----- CPU =     812.0649 (sec) -------------
TotEng   =   -359368.0597 KinEng   =    145341.7421 Temp     =       301.1162 
PotEng   =   -504709.8018 E_bond   =     57430.8678 E_angle  =     18090.4644 
E_dihed  =     13040.0147 E_impro  =         0.0000 E_vdwl   =    119160.2968 
E_coul   =    863551.1157 E_long   =  -1575982.5611 Press    =      4621.4258
------------ Step           2900 ----- CPU =     829.4823 (sec) -------------
TotEng   =   -359503.3368 KinEng   =    144325.2375 Temp     =       299.0102 
PotEng   =   -503828.5743 E_bond   =     57218.2071 E_angle  =     18187.3022 
E_dihed  =     13145.2342 E_impro  =         0.0000 E_vdwl   =    118857.6630 
E_coul   =    864752.6197 E_long   =  -1575989.6004 Press    =      4610.4322
------------ Step           2950 ----- CPU =     846.1308 (sec) -------------
TotEng   =   -359592.5459 KinEng   =    144420.1462 Temp     =       299.2068 
PotEng   =   -504012.6921 E_bond   =     57519.0162 E_angle  =     17794.5537 
E_dihed  =     12949.0674 E_impro  =         0.0000 E_vdwl   =    118551.3831 
E_coul   =    865174.9946 E_long   =  -1576001.7072 Press    =      4553.6401
------------ Step           3000 ----- CPU =     863.2178 (sec) -------------
TotEng   =   -359700.5543 KinEng   =    143999.3346 Temp     =       298.3350 
PotEng   =   -503699.8890 E_bond   =     57468.0601 E_angle  =     17787.1335 
E_dihed  =     12846.6205 E_impro  =         0.0000 E_vdwl   =    118406.8795 
E_coul   =    865803.6911 E_long   =  -1576012.2737 Press    =      4598.0072
------------ Step           3050 ----- CPU =     879.0631 (sec) -------------
TotEng   =   -359341.2195 KinEng   =    143856.6559 Temp     =       298.0394 
PotEng   =   -503197.8754 E_bond   =     57707.0712 E_angle  =     18126.1459 
E_dihed  =     12723.3208 E_impro  =         0.0000 E_vdwl   =    118049.9936 
E_coul   =    866175.0180 E_long   =  -1575979.4248 Press    =      4481.3522
------------ Step           3100 ----- CPU =     894.8232 (sec) -------------
TotEng   =   -358555.5362 KinEng   =    144613.1863 Temp     =       299.6068 
PotEng   =   -503168.7226 E_bond   =     58003.4157 E_angle  =     17829.5114 
E_dihed  =     12726.0775 E_impro  =         0.0000 E_vdwl   =    117687.0311 
E_coul   =    866583.1507 E_long   =  -1575997.9090 Press    =      4330.6132
------------ Step           3150 ----- CPU =      911.253 (sec) -------------
TotEng   =   -357774.5968 KinEng   =    145271.9457 Temp     =       300.9716 
PotEng   =   -503046.5426 E_bond   =     57416.7928 E_angle  =     17719.5767 
E_dihed  =     12680.8814 E_impro  =         0.0000 E_vdwl   =    117641.7568 
E_coul   =    867503.3103 E_long   =  -1576008.8604 Press    =      4454.0453
------------ Step           3200 ----- CPU =     927.9053 (sec) -------------
TotEng   =   -356648.9013 KinEng   =    145936.3362 Temp     =       302.3481 
PotEng   =   -502585.2375 E_bond   =     57913.9759 E_angle  =     17585.1154 
E_dihed  =     12824.6128 E_impro  =         0.0000 E_vdwl   =    117251.4027 
E_coul   =    867799.9723 E_long   =  -1575960.3166 Press    =      4296.8533
------------ Step           3250 ----- CPU =      944.203 (sec) -------------
TotEng   =   -356052.8777 KinEng   =    146032.6012 Temp     =       302.5475 
PotEng   =   -502085.4789 E_bond   =     58141.7339 E_angle  =     17687.7057 
E_dihed  =     12778.6262 E_impro  =         0.0000 E_vdwl   =    116628.3937 
E_coul   =    868692.3104 E_long   =  -1576014.2490 Press    =      4235.0999
------------ Step           3300 ----- CPU =     960.5704 (sec) -------------
TotEng   =   -355768.5957 KinEng   =    146077.4654 Temp     =       302.6404 
PotEng   =   -501846.0612 E_bond   =     57555.6327 E_angle  =     17733.1323 
E_dihed  =     12627.8792 E_impro  =         0.0000 E_vdwl   =    115979.8067 
E_coul   =    870297.6831 E_long   =  -1576040.1951 Press    =      4259.5652
------------ Step           3350 ----- CPU =     977.1788 (sec) -------------
TotEng   =   -356022.5690 KinEng   =    145215.7422 Temp     =       300.8551 
PotEng   =   -501238.3111 E_bond   =     57825.6569 E_angle  =     17636.7693 
E_dihed  =     12636.7307 E_impro  =         0.0000 E_vdwl   =    115154.0488 
E_coul   =    871522.4445 E_long   =  -1576013.9613 Press    =      3977.9957
------------ Step           3400 ----- CPU =     993.7613 (sec) -------------
TotEng   =   -356710.2150 KinEng   =    144755.7184 Temp     =       299.9021 
PotEng   =   -501465.9334 E_bond   =     57727.7903 E_angle  =     17435.4356 
E_dihed  =     12655.3619 E_impro  =         0.0000 E_vdwl   =    114643.6585 
E_coul   =    872095.0984 E_long   =  -1576023.2781 Press    =      3907.0443
------------ Step           3450 ----- CPU =     1011.064 (sec) -------------
TotEng   =   -357138.0418 KinEng   =    144992.6850 Temp     =       300.3930 
PotEng   =   -502130.7267 E_bond   =     57787.7359 E_angle  =     17335.3004 
E_dihed  =     12394.9169 E_impro  =         0.0000 E_vdwl   =    114549.1512 
E_coul   =    871825.9523 E_long   =  -1576023.7833 Press    =      3873.0755
------------ Step           3500 ----- CPU =     1041.394 (sec) -------------
TotEng   =   -358000.6331 KinEng   =    144308.3012 Temp     =       298.9751 
PotEng   =   -502308.9343 E_bond   =     57834.0191 E_angle  =     17479.9115 
E_dihed  =     12332.3824 E_impro  =         0.0000 E_vdwl   =    113929.5670 
E_coul   =    872150.0190 E_long   =  -1576034.8333 Press    =      3717.3685
------------ Step           3550 ----- CPU =     1063.414 (sec) -------------
TotEng   =   -358712.6393 KinEng   =    144506.2172 Temp     =       299.3852 
PotEng   =   -503218.8565 E_bond   =     57607.1979 E_angle  =     17233.6399 
E_dihed  =     12211.6048 E_impro  =         0.0000 E_vdwl   =    113152.3488 
E_coul   =    872595.6441 E_long   =  -1576019.2920 Press    =      3571.8600
------------ Step           3600 ----- CPU =     1080.193 (sec) -------------
TotEng   =   -358959.9751 KinEng   =    144058.7414 Temp     =       298.4581 
PotEng   =   -503018.7165 E_bond   =     57640.8994 E_angle  =     17097.5468 
E_dihed  =     12451.7997 E_impro  =         0.0000 E_vdwl   =    112185.8762 
E_coul   =    873627.4966 E_long   =  -1576022.3352 Press    =      3375.6614
------------ Step           3650 ----- CPU =     1104.965 (sec) -------------
TotEng   =   -358809.1015 KinEng   =    144513.3223 Temp     =       299.3999 
PotEng   =   -503322.4238 E_bond   =     57674.9491 E_angle  =     16825.3349 
E_dihed  =     12260.3472 E_impro  =         0.0000 E_vdwl   =    112299.2355 
E_coul   =    873634.0606 E_long   =  -1576016.3510 Press    =      3438.9452
------------ Step           3700 ----- CPU =     1125.435 (sec) -------------
TotEng   =   -358648.5073 KinEng   =    144408.5265 Temp     =       299.1828 
PotEng   =   -503057.0337 E_bond   =     57688.8577 E_angle  =     16591.5423 
E_dihed  =     12251.8183 E_impro  =         0.0000 E_vdwl   =    112182.3390 
E_coul   =    874239.5025 E_long   =  -1576011.0935 Press    =      3324.0040
------------ Step           3750 ----- CPU =     1142.368 (sec) -------------
TotEng   =   -358277.1218 KinEng   =    144567.0284 Temp     =       299.5112 
PotEng   =   -502844.1502 E_bond   =     57681.6275 E_angle  =     16518.7295 
E_dihed  =     12250.8346 E_impro  =         0.0000 E_vdwl   =    110712.3951 
E_coul   =    876016.4134 E_long   =  -1576024.1505 Press    =      3052.4375
------------ Step           3800 ----- CPU =     1160.146 (sec) -------------
TotEng   =   -357693.9881 KinEng   =    144579.9316 Temp     =       299.5379 
PotEng   =   -502273.9196 E_bond   =     57271.6015 E_angle  =     16764.5698 
E_dihed  =     12043.9609 E_impro  =         0.0000 E_vdwl   =    111121.7198 
E_coul   =    876544.3020 E_long   =  -1576020.0736 Press    =      3314.4942
------------ Step           3850 ----- CPU =     1177.192 (sec) -------------
TotEng   =   -357367.2382 KinEng   =    144862.0993 Temp     =       300.1225 
PotEng   =   -502229.3375 E_bond   =     57502.9495 E_angle  =     16897.5421 
E_dihed  =     12126.6319 E_impro  =         0.0000 E_vdwl   =    109638.8904 
E_coul   =    877647.7522 E_long   =  -1576043.1036 Press    =      2849.8120
------------ Step           3900 ----- CPU =     1193.882 (sec) -------------
TotEng   =   -356483.9114 KinEng   =    145055.2870 Temp     =       300.5227 
PotEng   =   -501539.1984 E_bond   =     57882.5459 E_angle  =     16600.9024 
E_dihed  =     11993.0086 E_impro  =         0.0000 E_vdwl   =    108952.4086 
E_coul   =    879065.3027 E_long   =  -1576033.3666 Press    =      2858.5195
------------ Step           3950 ----- CPU =     1210.466 (sec) -------------
TotEng   =   -356125.3652 KinEng   =    144693.7866 Temp     =       299.7738 
PotEng   =   -500819.1519 E_bond   =     57613.7227 E_angle  =     16829.1969 
E_dihed  =     12109.4297 E_impro  =         0.0000 E_vdwl   =    108201.9512 
E_coul   =    880474.6114 E_long   =  -1576048.0637 Press    =      2737.9662
------------ Step           4000 ----- CPU =       1227.2 (sec) -------------
TotEng   =   -355599.9312 KinEng   =    145321.9584 Temp     =       301.0752 
PotEng   =   -500921.8896 E_bond   =     57189.3789 E_angle  =     16808.3498 
E_dihed  =     11712.0838 E_impro  =         0.0000 E_vdwl   =    106850.7271 
E_coul   =    882560.2406 E_long   =  -1576042.6699 Press    =      2580.6456
------------ Step           4050 ----- CPU =     1242.985 (sec) -------------
TotEng   =   -355379.9776 KinEng   =    144969.5485 Temp     =       300.3451 
PotEng   =   -500349.5261 E_bond   =     56904.1313 E_angle  =     16803.6713 
E_dihed  =     11899.4278 E_impro  =         0.0000 E_vdwl   =    106084.8685 
E_coul   =    883988.7224 E_long   =  -1576030.3474 Press    =      2450.6134
------------ Step           4100 ----- CPU =     1258.778 (sec) -------------
TotEng   =   -355115.6550 KinEng   =    144638.0874 Temp     =       299.6584 
PotEng   =   -499753.7424 E_bond   =     57567.8663 E_angle  =     16654.1885 
E_dihed  =     11972.6805 E_impro  =         0.0000 E_vdwl   =    106106.1406 
E_coul   =    884028.6930 E_long   =  -1576083.3113 Press    =      2411.0107
------------ Step           4150 ----- CPU =     1275.105 (sec) -------------
TotEng   =   -355054.5650 KinEng   =    144619.8444 Temp     =       299.6206 
PotEng   =   -499674.4094 E_bond   =     57545.3280 E_angle  =     16670.2232 
E_dihed  =     11832.9215 E_impro  =         0.0000 E_vdwl   =    105556.9888 
E_coul   =    884783.7942 E_long   =  -1576063.6651 Press    =      2266.7042
------------ Step           4200 ----- CPU =     1291.665 (sec) -------------
TotEng   =   -355030.4624 KinEng   =    144481.2172 Temp     =       299.3334 
PotEng   =   -499511.6796 E_bond   =     57248.8370 E_angle  =     16354.3406 
E_dihed  =     11784.5468 E_impro  =         0.0000 E_vdwl   =    105482.1554 
E_coul   =    885647.1108 E_long   =  -1576028.6703 Press    =      2209.7396
------------ Step           4250 ----- CPU =     1308.674 (sec) -------------
TotEng   =   -354961.2151 KinEng   =    144734.9007 Temp     =       299.8589 
PotEng   =   -499696.1158 E_bond   =     56983.3472 E_angle  =     16100.1219 
E_dihed  =     11827.5467 E_impro  =         0.0000 E_vdwl   =    104286.7404 
E_coul   =    887150.0544 E_long   =  -1576043.9264 Press    =      2093.1120
------------ Step           4300 ----- CPU =     1325.599 (sec) -------------
TotEng   =   -354700.8824 KinEng   =    144248.4990 Temp     =       298.8512 
PotEng   =   -498949.3814 E_bond   =     57315.4461 E_angle  =     16293.8407 
E_dihed  =     11870.1535 E_impro  =         0.0000 E_vdwl   =    103165.1630 
E_coul   =    888429.3361 E_long   =  -1576023.3208 Press    =      1856.9684
------------ Step           4350 ----- CPU =     1342.231 (sec) -------------
TotEng   =   -354263.8852 KinEng   =    144383.6695 Temp     =       299.1313 
PotEng   =   -498647.5547 E_bond   =     56939.9487 E_angle  =     16257.3242 
E_dihed  =     11989.3545 E_impro  =         0.0000 E_vdwl   =    102623.4622 
E_coul   =    889559.4061 E_long   =  -1576017.0504 Press    =      1824.6903
------------ Step           4400 ----- CPU =     1359.495 (sec) -------------
TotEng   =   -353663.4744 KinEng   =    144264.1944 Temp     =       298.8837 
PotEng   =   -497927.6688 E_bond   =     56813.0148 E_angle  =     16735.0243 
E_dihed  =     11740.9506 E_impro  =         0.0000 E_vdwl   =    103015.2190 
E_coul   =    889804.1009 E_long   =  -1576035.9784 Press    =      1752.0138
------------ Step           4450 ----- CPU =     1376.352 (sec) -------------
TotEng   =   -352859.2994 KinEng   =    144822.9058 Temp     =       300.0413 
PotEng   =   -497682.2052 E_bond   =     56905.4854 E_angle  =     16239.4267 
E_dihed  =     11840.7719 E_impro  =         0.0000 E_vdwl   =    102277.4499 
E_coul   =    891086.4010 E_long   =  -1576031.7401 Press    =      1774.1423
------------ Step           4500 ----- CPU =     1393.306 (sec) -------------
TotEng   =   -352344.2828 KinEng   =    144412.2293 Temp     =       299.1904 
PotEng   =   -496756.5121 E_bond   =     56672.8878 E_angle  =     16482.5769 
E_dihed  =     11947.7100 E_impro  =         0.0000 E_vdwl   =    101889.5013 
E_coul   =    892271.1663 E_long   =  -1576020.3543 Press    =      1621.9213
------------ Step           4550 ----- CPU =      1410.78 (sec) -------------
TotEng   =   -351784.5276 KinEng   =    145043.8618 Temp     =       300.4990 
PotEng   =   -496828.3895 E_bond   =     56794.3404 E_angle  =     15937.4913 
E_dihed  =     11917.9981 E_impro  =         0.0000 E_vdwl   =    101406.3750 
E_coul   =    893148.7184 E_long   =  -1576033.3127 Press    =      1560.8111
------------ Step           4600 ----- CPU =     1427.293 (sec) -------------
TotEng   =   -351203.4337 KinEng   =    144701.9259 Temp     =       299.7906 
PotEng   =   -495905.3596 E_bond   =     56638.1184 E_angle  =     16230.7108 
E_dihed  =     11954.4739 E_impro  =         0.0000 E_vdwl   =    100977.5082 
E_coul   =    894317.6223 E_long   =  -1576023.7931 Press    =      1552.0024
------------ Step           4650 ----- CPU =     1444.408 (sec) -------------
TotEng   =   -351097.0948 KinEng   =    145013.9808 Temp     =       300.4371 
PotEng   =   -496111.0756 E_bond   =     56983.2220 E_angle  =     16309.8396 
E_dihed  =     11953.6575 E_impro  =         0.0000 E_vdwl   =    100898.3334 
E_coul   =    893790.2501 E_long   =  -1576046.3783 Press    =      1503.0625
------------ Step           4700 ----- CPU =     1461.376 (sec) -------------
TotEng   =   -350700.4011 KinEng   =    144734.7841 Temp     =       299.8587 
PotEng   =   -495435.1852 E_bond   =     56888.0904 E_angle  =     15932.8869 
E_dihed  =     11828.5000 E_impro  =         0.0000 E_vdwl   =    100194.6789 
E_coul   =    895765.0033 E_long   =  -1576044.3447 Press    =      1442.8417
------------ Step           4750 ----- CPU =     1478.601 (sec) -------------
TotEng   =   -350649.3041 KinEng   =    144408.3055 Temp     =       299.1823 
PotEng   =   -495057.6095 E_bond   =     56645.6624 E_angle  =     16129.7108 
E_dihed  =     11894.8096 E_impro  =         0.0000 E_vdwl   =     99233.4115 
E_coul   =    897077.6353 E_long   =  -1576038.8390 Press    =      1275.8914
------------ Step           4800 ----- CPU =      1498.64 (sec) -------------
TotEng   =   -350147.9223 KinEng   =    144696.7758 Temp     =       299.7800 
PotEng   =   -494844.6980 E_bond   =     56522.0179 E_angle  =     16009.3547 
E_dihed  =     11792.2814 E_impro  =         0.0000 E_vdwl   =     99342.3707 
E_coul   =    897518.6678 E_long   =  -1576029.3905 Press    =      1190.1086
------------ Step           4850 ----- CPU =     1524.266 (sec) -------------
TotEng   =   -349624.9987 KinEng   =    144502.8495 Temp     =       299.3782 
PotEng   =   -494127.8482 E_bond   =     56963.2104 E_angle  =     16075.3789 
E_dihed  =     11628.2687 E_impro  =         0.0000 E_vdwl   =     99311.8995 
E_coul   =    897940.9133 E_long   =  -1576047.5190 Press    =      1123.7426
------------ Step           4900 ----- CPU =     1543.871 (sec) -------------
TotEng   =   -349149.8026 KinEng   =    144748.4422 Temp     =       299.8870 
PotEng   =   -493898.2447 E_bond   =     56687.5134 E_angle  =     16084.9981 
E_dihed  =     11699.4987 E_impro  =         0.0000 E_vdwl   =     98858.1237 
E_coul   =    898813.0698 E_long   =  -1576041.4484 Press    =      1016.4814
------------ Step           4950 ----- CPU =     1560.437 (sec) -------------
TotEng   =   -348486.0027 KinEng   =    144928.4935 Temp     =       300.2600 
PotEng   =   -493414.4962 E_bond   =     56377.5200 E_angle  =     16119.0324 
E_dihed  =     11647.5629 E_impro  =         0.0000 E_vdwl   =     98988.9132 
E_coul   =    899483.8351 E_long   =  -1576031.3598 Press    =      1170.0906
------------ Step           5000 ----- CPU =     1577.415 (sec) -------------
TotEng   =   -347441.5700 KinEng   =    145260.7398 Temp     =       300.9484 
PotEng   =   -492702.3097 E_bond   =     56461.2463 E_angle  =     16015.2521 
E_dihed  =     11641.3836 E_impro  =         0.0000 E_vdwl   =     98215.1632 
E_coul   =    900987.6307 E_long   =  -1576022.9857 Press    =      1105.1894
------------ Step           5050 ----- CPU =     1592.873 (sec) -------------
TotEng   =   -346811.6538 KinEng   =    145359.8780 Temp     =       301.1538 
PotEng   =   -492171.5318 E_bond   =     56755.6188 E_angle  =     15838.4674 
E_dihed  =     11647.4857 E_impro  =         0.0000 E_vdwl   =     97585.0539 
E_coul   =    902040.4016 E_long   =  -1576038.5593 Press    =       950.0811
------------ Step           5100 ----- CPU =     1609.357 (sec) -------------
TotEng   =   -346541.4124 KinEng   =    145579.4802 Temp     =       301.6087 
PotEng   =   -492120.8926 E_bond   =     56819.8799 E_angle  =     15878.1549 
E_dihed  =     11523.5606 E_impro  =         0.0000 E_vdwl   =     97284.9898 
E_coul   =    902379.2003 E_long   =  -1576006.6780 Press    =       878.1373
------------ Step           5150 ----- CPU =     1625.648 (sec) -------------
TotEng   =   -346410.7778 KinEng   =    145189.0703 Temp     =       300.7999 
PotEng   =   -491599.8481 E_bond   =     56720.4304 E_angle  =     15991.3610 
E_dihed  =     11641.5068 E_impro  =         0.0000 E_vdwl   =     97541.8834 
E_coul   =    902538.0904 E_long   =  -1576033.1201 Press    =       844.9535
------------ Step           5200 ----- CPU =     1641.835 (sec) -------------
TotEng   =   -346518.4349 KinEng   =    145313.7089 Temp     =       301.0581 
PotEng   =   -491832.1438 E_bond   =     56332.9563 E_angle  =     16067.0123 
E_dihed  =     11613.6127 E_impro  =         0.0000 E_vdwl   =     97132.8847 
E_coul   =    903040.7542 E_long   =  -1576019.3638 Press    =       853.7863
------------ Step           5250 ----- CPU =     1658.492 (sec) -------------
TotEng   =   -346501.2655 KinEng   =    144633.6666 Temp     =       299.6492 
PotEng   =   -491134.9321 E_bond   =     56284.4988 E_angle  =     16007.6729 
E_dihed  =     11527.3603 E_impro  =         0.0000 E_vdwl   =     97024.4027 
E_coul   =    904030.8954 E_long   =  -1576009.7622 Press    =       683.0527
------------ Step           5300 ----- CPU =     1674.632 (sec) -------------
TotEng   =   -346417.8040 KinEng   =    144706.7409 Temp     =       299.8006 
PotEng   =   -491124.5449 E_bond   =     56442.2778 E_angle  =     15776.2640 
E_dihed  =     11547.6443 E_impro  =         0.0000 E_vdwl   =     96653.2888 
E_coul   =    904472.1022 E_long   =  -1576016.1220 Press    =       649.8413
------------ Step           5350 ----- CPU =     1690.626 (sec) -------------
TotEng   =   -346388.4311 KinEng   =    144600.0154 Temp     =       299.5795 
PotEng   =   -490988.4464 E_bond   =     56536.2617 E_angle  =     15646.0967 
E_dihed  =     11744.0568 E_impro  =         0.0000 E_vdwl   =     96430.3897 
E_coul   =    904662.5764 E_long   =  -1576007.8278 Press    =       669.8642
------------ Step           5400 ----- CPU =     1708.745 (sec) -------------
TotEng   =   -346263.9238 KinEng   =    144235.8983 Temp     =       298.8251 
PotEng   =   -490499.8221 E_bond   =     56219.9055 E_angle  =     15915.7814 
E_dihed  =     11654.5009 E_impro  =         0.0000 E_vdwl   =     96197.7198 
E_coul   =    905548.0679 E_long   =  -1576035.7976 Press    =       761.6252
------------ Step           5450 ----- CPU =     1726.105 (sec) -------------
TotEng   =   -345956.7465 KinEng   =    144187.9805 Temp     =       298.7258 
PotEng   =   -490144.7269 E_bond   =     56603.3268 E_angle  =     15738.0515 
E_dihed  =     11640.6726 E_impro  =         0.0000 E_vdwl   =     96075.2791 
E_coul   =    905829.6166 E_long   =  -1576031.6736 Press    =       603.6069
------------ Step           5500 ----- CPU =      1744.53 (sec) -------------
TotEng   =   -345443.7629 KinEng   =    144438.2583 Temp     =       299.2444 
PotEng   =   -489882.0212 E_bond   =     56533.5498 E_angle  =     15701.0924 
E_dihed  =     11614.9064 E_impro  =         0.0000 E_vdwl   =     96564.4335 
E_coul   =    905714.7373 E_long   =  -1576010.7405 Press    =       703.6493
------------ Step           5550 ----- CPU =     1771.973 (sec) -------------
TotEng   =   -344647.6335 KinEng   =    144397.2339 Temp     =       299.1594 
PotEng   =   -489044.8674 E_bond   =     56457.3409 E_angle  =     15669.0570 
E_dihed  =     11544.2955 E_impro  =         0.0000 E_vdwl   =     96218.3871 
E_coul   =    907103.9611 E_long   =  -1576037.9090 Press    =       559.4775
------------ Step           5600 ----- CPU =     1790.831 (sec) -------------
TotEng   =   -343792.6338 KinEng   =    144506.4432 Temp     =       299.3856 
PotEng   =   -488299.0770 E_bond   =     56719.8255 E_angle  =     15825.5399 
E_dihed  =     11690.9530 E_impro  =         0.0000 E_vdwl   =     95189.6199 
E_coul   =    908294.6360 E_long   =  -1576019.6513 Press    =       470.9002
------------ Step           5650 ----- CPU =     1813.757 (sec) -------------
TotEng   =   -343321.7310 KinEng   =    145207.0276 Temp     =       300.8371 
PotEng   =   -488528.7586 E_bond   =     56451.4784 E_angle  =     15669.0088 
E_dihed  =     11565.8597 E_impro  =         0.0000 E_vdwl   =     95393.3455 
E_coul   =    908411.7558 E_long   =  -1576020.2069 Press    =       500.7620
------------ Step           5700 ----- CPU =     1834.739 (sec) -------------
TotEng   =   -342552.6831 KinEng   =    144611.5492 Temp     =       299.6034 
PotEng   =   -487164.2323 E_bond   =     56641.0769 E_angle  =     16062.1188 
E_dihed  =     11763.0204 E_impro  =         0.0000 E_vdwl   =     95708.0917 
E_coul   =    908705.7614 E_long   =  -1576044.3016 Press    =       478.8389
------------ Step           5750 ----- CPU =     1864.472 (sec) -------------
TotEng   =   -342185.9000 KinEng   =    145045.6244 Temp     =       300.5027 
PotEng   =   -487231.5244 E_bond   =     56484.5911 E_angle  =     15809.5257 
E_dihed  =     11607.7540 E_impro  =         0.0000 E_vdwl   =     95065.9830 
E_coul   =    909830.5276 E_long   =  -1576029.9059 Press    =       481.7156
------------ Step           5800 ----- CPU =     1886.132 (sec) -------------
TotEng   =   -342052.2965 KinEng   =    145427.7098 Temp     =       301.2943 
PotEng   =   -487480.0062 E_bond   =     56411.2001 E_angle  =     15810.0665 
E_dihed  =     11473.9046 E_impro  =         0.0000 E_vdwl   =     94224.9565 
E_coul   =    910624.1342 E_long   =  -1576024.2682 Press    =       381.9876
------------ Step           5850 ----- CPU =     1909.677 (sec) -------------
TotEng   =   -341851.4973 KinEng   =    145034.9716 Temp     =       300.4806 
PotEng   =   -486886.4689 E_bond   =     56303.4740 E_angle  =     15788.8699 
E_dihed  =     11569.5065 E_impro  =         0.0000 E_vdwl   =     93906.1959 
E_coul   =    911573.0394 E_long   =  -1576027.5545 Press    =       346.6689
------------ Step           5900 ----- CPU =     1940.572 (sec) -------------
TotEng   =   -341941.9716 KinEng   =    144439.5813 Temp     =       299.2471 
PotEng   =   -486381.5529 E_bond   =     56022.2939 E_angle  =     15645.7439 
E_dihed  =     11635.1491 E_impro  =         0.0000 E_vdwl   =     93755.5628 
E_coul   =    912583.2044 E_long   =  -1576023.5070 Press    =       271.2158
------------ Step           5950 ----- CPU =     1972.592 (sec) -------------
TotEng   =   -341868.0628 KinEng   =    144123.0939 Temp     =       298.5914 
PotEng   =   -485991.1567 E_bond   =     56622.3092 E_angle  =     15522.2591 
E_dihed  =     11524.6346 E_impro  =         0.0000 E_vdwl   =     93970.0501 
E_coul   =    912410.8418 E_long   =  -1576041.2515 Press    =       287.9129
------------ Step           6000 ----- CPU =     1997.064 (sec) -------------
TotEng   =   -341832.3830 KinEng   =    144639.5389 Temp     =       299.6614 
PotEng   =   -486471.9218 E_bond   =     56771.8310 E_angle  =     15403.8463 
E_dihed  =     11470.9392 E_impro  =         0.0000 E_vdwl   =     93907.9828 
E_coul   =    911995.9946 E_long   =  -1576022.5157 Press    =       193.3347
------------ Step           6050 ----- CPU =     2018.704 (sec) -------------
TotEng   =   -341374.6408 KinEng   =    144451.8233 Temp     =       299.2725 
PotEng   =   -485826.4641 E_bond   =     56456.0370 E_angle  =     15927.0754 
E_dihed  =     11431.8048 E_impro  =         0.0000 E_vdwl   =     93589.2916 
E_coul   =    912766.0295 E_long   =  -1575996.7025 Press    =        93.7266
------------ Step           6100 ----- CPU =     2039.727 (sec) -------------
TotEng   =   -340855.3513 KinEng   =    144748.6969 Temp     =       299.8875 
PotEng   =   -485604.0482 E_bond   =     55993.6865 E_angle  =     15642.7777 
E_dihed  =     11486.5171 E_impro  =         0.0000 E_vdwl   =     92493.1204 
E_coul   =    914823.9171 E_long   =  -1576044.0671 Press    =        69.2197
------------ Step           6150 ----- CPU =     2065.613 (sec) -------------
TotEng   =   -340019.3813 KinEng   =    144694.9330 Temp     =       299.7761 
PotEng   =   -484714.3144 E_bond   =     55955.4521 E_angle  =     15766.1215 
E_dihed  =     11459.8807 E_impro  =         0.0000 E_vdwl   =     92830.1683 
E_coul   =    915265.8725 E_long   =  -1575991.8096 Press    =       135.2196
------------ Step           6200 ----- CPU =     2089.868 (sec) -------------
TotEng   =   -339364.8247 KinEng   =    144615.6548 Temp     =       299.6119 
PotEng   =   -483980.4796 E_bond   =     56405.0080 E_angle  =     16071.7400 
E_dihed  =     11511.5660 E_impro  =         0.0000 E_vdwl   =     93007.1698 
E_coul   =    915045.2380 E_long   =  -1576021.2014 Press    =        31.5448
------------ Step           6250 ----- CPU =     2113.071 (sec) -------------
TotEng   =   -338734.8067 KinEng   =    145569.3722 Temp     =       301.5878 
PotEng   =   -484304.1789 E_bond   =     56472.9792 E_angle  =     15595.7195 
E_dihed  =     11640.8916 E_impro  =         0.0000 E_vdwl   =     93187.8537 
E_coul   =    914835.6214 E_long   =  -1576037.2443 Press    =       172.2087
------------ Step           6300 ----- CPU =     2132.591 (sec) -------------
TotEng   =   -338379.5217 KinEng   =    145413.8958 Temp     =       301.2657 
PotEng   =   -483793.4176 E_bond   =     56167.0351 E_angle  =     15599.2661 
E_dihed  =     11573.2867 E_impro  =         0.0000 E_vdwl   =     92317.9995 
E_coul   =    916551.5432 E_long   =  -1576002.5481 Press    =         2.0676
------------ Step           6350 ----- CPU =     2151.708 (sec) -------------
TotEng   =   -338133.0910 KinEng   =    144961.4071 Temp     =       300.3282 
PotEng   =   -483094.4981 E_bond   =     55997.8974 E_angle  =     15626.7645 
E_dihed  =     11599.1208 E_impro  =         0.0000 E_vdwl   =     92115.0634 
E_coul   =    917595.8999 E_long   =  -1576029.2440 Press    =        31.6182
------------ Step           6400 ----- CPU =     2167.918 (sec) -------------
TotEng   =   -338052.7808 KinEng   =    145091.7356 Temp     =       300.5982 
PotEng   =   -483144.5164 E_bond   =     56037.1829 E_angle  =     15274.0367 
E_dihed  =     11459.1263 E_impro  =         0.0000 E_vdwl   =     92035.3888 
E_coul   =    918089.0826 E_long   =  -1576039.3337 Press    =       122.2350
------------ Step           6450 ----- CPU =     2189.204 (sec) -------------
TotEng   =   -337728.3011 KinEng   =    144616.5706 Temp     =       299.6138 
PotEng   =   -482344.8716 E_bond   =     56252.1770 E_angle  =     15481.6656 
E_dihed  =     11407.3022 E_impro  =         0.0000 E_vdwl   =     92234.3929 
E_coul   =    918293.8585 E_long   =  -1576014.2678 Press    =       -70.9472
------------ Step           6500 ----- CPU =     2213.751 (sec) -------------
TotEng   =   -337619.9853 KinEng   =    144761.4461 Temp     =       299.9139 
PotEng   =   -482381.4314 E_bond   =     56393.2303 E_angle  =     15385.3330 
E_dihed  =     11579.1176 E_impro  =         0.0000 E_vdwl   =     92227.0256 
E_coul   =    918073.2709 E_long   =  -1576039.4090 Press    =       -89.8570
------------ Step           6550 ----- CPU =     2238.456 (sec) -------------
TotEng   =   -337397.6188 KinEng   =    144527.1639 Temp     =       299.4286 
PotEng   =   -481924.7827 E_bond   =     56732.9421 E_angle  =     15201.9230 
E_dihed  =     11520.9141 E_impro  =         0.0000 E_vdwl   =     92609.8258 
E_coul   =    918033.4723 E_long   =  -1576023.8600 Press    =       -47.2628
------------ Step           6600 ----- CPU =     2264.904 (sec) -------------
TotEng   =   -337220.2403 KinEng   =    144849.2628 Temp     =       300.0959 
PotEng   =   -482069.5031 E_bond   =     56402.9354 E_angle  =     15652.4017 
E_dihed  =     11545.9346 E_impro  =         0.0000 E_vdwl   =     92042.8735 
E_coul   =    918306.7792 E_long   =  -1576020.4275 Press    =       -76.0236
------------ Step           6650 ----- CPU =     2291.634 (sec) -------------
TotEng   =   -337116.9086 KinEng   =    145024.8858 Temp     =       300.4597 
PotEng   =   -482141.7944 E_bond   =     56361.4638 E_angle  =     15605.1580 
E_dihed  =     11478.9171 E_impro  =         0.0000 E_vdwl   =     91066.2388 
E_coul   =    919358.2996 E_long   =  -1576011.8717 Press    =      -270.7077
------------ Step           6700 ----- CPU =     2310.848 (sec) -------------
TotEng   =   -336794.5416 KinEng   =    144475.8647 Temp     =       299.3223 
PotEng   =   -481270.4062 E_bond   =     56060.5719 E_angle  =     15541.7118 
E_dihed  =     11445.3835 E_impro  =         0.0000 E_vdwl   =     91082.4797 
E_coul   =    920620.7314 E_long   =  -1576021.2847 Press    =       -97.3799
------------ Step           6750 ----- CPU =     2335.487 (sec) -------------
TotEng   =   -336706.0427 KinEng   =    144942.4249 Temp     =       300.2889 
PotEng   =   -481648.4676 E_bond   =     56239.5815 E_angle  =     15246.6351 
E_dihed  =     11582.0329 E_impro  =         0.0000 E_vdwl   =     91115.5119 
E_coul   =    920211.6839 E_long   =  -1576043.9130 Press    =      -198.8096
------------ Step           6800 ----- CPU =     2364.301 (sec) -------------
TotEng   =   -336351.2419 KinEng   =    144748.6547 Temp     =       299.8874 
PotEng   =   -481099.8967 E_bond   =     56451.9444 E_angle  =     15254.9541 
E_dihed  =     11595.9404 E_impro  =         0.0000 E_vdwl   =     92015.4666 
E_coul   =    919608.6805 E_long   =  -1576026.8827 Press    =      -130.2540
------------ Step           6850 ----- CPU =     2391.652 (sec) -------------
TotEng   =   -336173.1491 KinEng   =    144247.3663 Temp     =       298.8489 
PotEng   =   -480420.5154 E_bond   =     55956.5723 E_angle  =     15745.0564 
E_dihed  =     11615.3239 E_impro  =         0.0000 E_vdwl   =     91392.8365 
E_coul   =    920870.4543 E_long   =  -1576000.7587 Press    =       -76.4480
------------ Step           6900 ----- CPU =     2418.146 (sec) -------------
TotEng   =   -335625.4865 KinEng   =    144657.9117 Temp     =       299.6994 
PotEng   =   -480283.3982 E_bond   =     55780.2917 E_angle  =     15519.8034 
E_dihed  =     11580.8581 E_impro  =         0.0000 E_vdwl   =     90911.9262 
E_coul   =    921955.3080 E_long   =  -1576031.5856 Press    =      -234.3962
------------ Step           6950 ----- CPU =     2445.559 (sec) -------------
TotEng   =   -335397.7593 KinEng   =    144947.1838 Temp     =       300.2988 
PotEng   =   -480344.9431 E_bond   =     56281.7929 E_angle  =     15303.0415 
E_dihed  =     11510.5827 E_impro  =         0.0000 E_vdwl   =     90463.4476 
E_coul   =    922094.3842 E_long   =  -1575998.1920 Press    =      -392.1875
------------ Step           7000 ----- CPU =     2467.417 (sec) -------------
TotEng   =   -334782.4227 KinEng   =    145453.6836 Temp     =       301.3481 
PotEng   =   -480236.1063 E_bond   =     56212.8928 E_angle  =     15142.4561 
E_dihed  =     11446.0202 E_impro  =         0.0000 E_vdwl   =     90748.6801 
E_coul   =    922234.0624 E_long   =  -1576020.2180 Press    =      -247.7585
------------ Step           7050 ----- CPU =     2496.345 (sec) -------------
TotEng   =   -334220.7221 KinEng   =    145095.4072 Temp     =       300.6058 
PotEng   =   -479316.1293 E_bond   =     56351.1431 E_angle  =     15247.2335 
E_dihed  =     11550.2817 E_impro  =         0.0000 E_vdwl   =     90638.0938 
E_coul   =    922881.6197 E_long   =  -1575984.5011 Press    =      -365.8739
------------ Step           7100 ----- CPU =     2517.675 (sec) -------------
TotEng   =   -333853.1175 KinEng   =    144688.8124 Temp     =       299.7635 
PotEng   =   -478541.9299 E_bond   =     56368.2537 E_angle  =     15347.0239 
E_dihed  =     11507.4585 E_impro  =         0.0000 E_vdwl   =     91246.0847 
E_coul   =    922991.2396 E_long   =  -1576001.9902 Press    =      -181.0804
------------ Step           7150 ----- CPU =     2543.524 (sec) -------------
TotEng   =   -333857.7363 KinEng   =    144933.8109 Temp     =       300.2710 
PotEng   =   -478791.5472 E_bond   =     56523.3580 E_angle  =     15251.6477 
E_dihed  =     11491.7138 E_impro  =         0.0000 E_vdwl   =     92095.5886 
E_coul   =    921878.1953 E_long   =  -1576032.0505 Press    =      -125.6998
------------ Step           7200 ----- CPU =     2566.273 (sec) -------------
TotEng   =   -333843.3229 KinEng   =    145241.6697 Temp     =       300.9089 
PotEng   =   -479084.9926 E_bond   =     56196.7664 E_angle  =     15386.1015 
E_dihed  =     11498.8045 E_impro  =         0.0000 E_vdwl   =     91043.8237 
E_coul   =    922802.2210 E_long   =  -1576012.7097 Press    =      -266.4628
------------ Step           7250 ----- CPU =     2591.344 (sec) -------------
TotEng   =   -333890.2976 KinEng   =    145156.5071 Temp     =       300.7324 
PotEng   =   -479046.8047 E_bond   =     56093.0528 E_angle  =     15312.5915 
E_dihed  =     11615.9143 E_impro  =         0.0000 E_vdwl   =     90593.5469 
E_coul   =    923376.5900 E_long   =  -1576038.5003 Press    =      -341.0161
------------ Step           7300 ----- CPU =      2619.53 (sec) -------------
TotEng   =   -334200.9081 KinEng   =    145044.6533 Temp     =       300.5007 
PotEng   =   -479245.5615 E_bond   =     56059.9350 E_angle  =     15354.7404 
E_dihed  =     11385.6036 E_impro  =         0.0000 E_vdwl   =     90585.7650 
E_coul   =    923384.7762 E_long   =  -1576016.3816 Press    =      -315.2183
------------ Step           7350 ----- CPU =     2641.768 (sec) -------------
TotEng   =   -334460.5080 KinEng   =    144405.3368 Temp     =       299.1762 
PotEng   =   -478865.8448 E_bond   =     56352.4726 E_angle  =     15247.4006 
E_dihed  =     11405.7290 E_impro  =         0.0000 E_vdwl   =     90423.5995 
E_coul   =    923727.6426 E_long   =  -1576022.6891 Press    =      -265.2726
------------ Step           7400 ----- CPU =     2670.198 (sec) -------------
TotEng   =   -334834.7470 KinEng   =    144535.4599 Temp     =       299.4458 
PotEng   =   -479370.2069 E_bond   =     56126.7786 E_angle  =     14982.9210 
E_dihed  =     11404.1998 E_impro  =         0.0000 E_vdwl   =     90862.5373 
E_coul   =    923256.1704 E_long   =  -1576002.8140 Press    =      -356.8338
------------ Step           7450 ----- CPU =     2693.073 (sec) -------------
TotEng   =   -334374.8521 KinEng   =    144423.5708 Temp     =       299.2139 
PotEng   =   -478798.4229 E_bond   =     56469.7570 E_angle  =     14900.4244 
E_dihed  =     11538.7434 E_impro  =         0.0000 E_vdwl   =     90739.4192 
E_coul   =    923563.4583 E_long   =  -1576010.2253 Press    =      -406.3127
------------ Step           7500 ----- CPU =     2718.574 (sec) -------------
TotEng   =   -333910.2277 KinEng   =    144189.9841 Temp     =       298.7300 
PotEng   =   -478100.2118 E_bond   =     56373.1877 E_angle  =     15204.8535 
E_dihed  =     11470.2810 E_impro  =         0.0000 E_vdwl   =     90478.4035 
E_coul   =    924371.5798 E_long   =  -1575998.5172 Press    =      -383.7485
------------ Step           7550 ----- CPU =     2746.883 (sec) -------------
TotEng   =   -333302.7632 KinEng   =    144583.6241 Temp     =       299.5455 
PotEng   =   -477886.3873 E_bond   =     56189.8884 E_angle  =     15107.9322 
E_dihed  =     11551.0700 E_impro  =         0.0000 E_vdwl   =     90368.8630 
E_coul   =    924911.9452 E_long   =  -1576016.0861 Press    =      -262.6431
------------ Step           7600 ----- CPU =     2770.152 (sec) -------------
TotEng   =   -332730.3481 KinEng   =    145171.1517 Temp     =       300.7628 
PotEng   =   -477901.4998 E_bond   =     56609.7417 E_angle  =     14824.3724 
E_dihed  =     11530.5965 E_impro  =         0.0000 E_vdwl   =     90659.5421 
E_coul   =    924496.7719 E_long   =  -1576022.5243 Press    =      -453.7950
------------ Step           7650 ----- CPU =     2794.167 (sec) -------------
TotEng   =   -331995.5103 KinEng   =    145182.5108 Temp     =       300.7863 
PotEng   =   -477178.0211 E_bond   =     56433.3308 E_angle  =     14936.5990 
E_dihed  =     11556.5135 E_impro  =         0.0000 E_vdwl   =     90046.0075 
E_coul   =    925854.2067 E_long   =  -1576004.6785 Press    =      -328.6464
------------ Step           7700 ----- CPU =     2813.491 (sec) -------------
TotEng   =   -331734.2573 KinEng   =    144977.6672 Temp     =       300.3619 
PotEng   =   -476711.9245 E_bond   =     56281.6348 E_angle  =     15043.7106 
E_dihed  =     11662.0963 E_impro  =         0.0000 E_vdwl   =     89905.5933 
E_coul   =    926404.3949 E_long   =  -1576009.3543 Press    =      -465.1983
------------ Step           7750 ----- CPU =     2840.674 (sec) -------------
TotEng   =   -331367.0303 KinEng   =    145012.2743 Temp     =       300.4336 
PotEng   =   -476379.3046 E_bond   =     56364.7402 E_angle  =     15043.2428 
E_dihed  =     11616.4730 E_impro  =         0.0000 E_vdwl   =     89772.9911 
E_coul   =    926820.1251 E_long   =  -1575996.8767 Press    =      -346.2548
------------ Step           7800 ----- CPU =     2868.922 (sec) -------------
TotEng   =   -331280.2576 KinEng   =    145300.5009 Temp     =       301.0307 
PotEng   =   -476580.7585 E_bond   =     56330.6832 E_angle  =     14835.4667 
E_dihed  =     11624.5406 E_impro  =         0.0000 E_vdwl   =     90207.5638 
E_coul   =    926446.2107 E_long   =  -1576025.2235 Press    =      -322.7535
------------ Step           7850 ----- CPU =     2894.503 (sec) -------------
TotEng   =   -331119.0071 KinEng   =    144586.4832 Temp     =       299.5515 
PotEng   =   -475705.4902 E_bond   =     56450.4168 E_angle  =     14910.1111 
E_dihed  =     11530.1501 E_impro  =         0.0000 E_vdwl   =     90499.4431 
E_coul   =    926924.1074 E_long   =  -1576019.7187 Press    =      -282.7382
------------ Step           7900 ----- CPU =     2921.836 (sec) -------------
TotEng   =   -331362.7166 KinEng   =    144974.0363 Temp     =       300.3544 
PotEng   =   -476336.7529 E_bond   =     56459.9140 E_angle  =     14765.7462 
E_dihed  =     11472.2920 E_impro  =         0.0000 E_vdwl   =     90503.5469 
E_coul   =    926468.3664 E_long   =  -1576006.6183 Press    =      -374.1904
------------ Step           7950 ----- CPU =      2950.99 (sec) -------------
TotEng   =   -331331.0325 KinEng   =    145069.9557 Temp     =       300.5531 
PotEng   =   -476400.9882 E_bond   =     56554.1134 E_angle  =     14913.8192 
E_dihed  =     11427.8683 E_impro  =         0.0000 E_vdwl   =     89629.2975 
E_coul   =    927095.2651 E_long   =  -1576021.3517 Press    =      -375.5785
------------ Step           8000 ----- CPU =     2978.257 (sec) -------------
TotEng   =   -331556.6082 KinEng   =    144579.7256 Temp     =       299.5375 
PotEng   =   -476136.3338 E_bond   =     56772.7706 E_angle  =     14946.1329 
E_dihed  =     11544.7777 E_impro  =         0.0000 E_vdwl   =     90852.1664 
E_coul   =    925780.0355 E_long   =  -1576032.2170 Press    =      -415.0715
------------ Step           8050 ----- CPU =     3001.361 (sec) -------------
TotEng   =   -331382.9739 KinEng   =    144568.0345 Temp     =       299.5132 
PotEng   =   -475951.0084 E_bond   =     56517.9703 E_angle  =     15001.9039 
E_dihed  =     11513.1323 E_impro  =         0.0000 E_vdwl   =     90501.2335 
E_coul   =    926541.7221 E_long   =  -1576026.9705 Press    =      -319.1931
------------ Step           8100 ----- CPU =     3020.698 (sec) -------------
TotEng   =   -331700.0438 KinEng   =    144499.5434 Temp     =       299.3713 
PotEng   =   -476199.5871 E_bond   =     56322.5414 E_angle  =     14883.4395 
E_dihed  =     11337.5451 E_impro  =         0.0000 E_vdwl   =     90001.2921 
E_coul   =    927272.6529 E_long   =  -1576017.0581 Press    =      -412.9338
------------ Step           8150 ----- CPU =     3039.002 (sec) -------------
TotEng   =   -331772.9303 KinEng   =    144110.7982 Temp     =       298.5659 
PotEng   =   -475883.7286 E_bond   =     56166.0250 E_angle  =     14755.4492 
E_dihed  =     11479.4178 E_impro  =         0.0000 E_vdwl   =     89875.4630 
E_coul   =    927839.9820 E_long   =  -1576000.0656 Press    =      -474.0106
------------ Step           8200 ----- CPU =     3057.182 (sec) -------------
TotEng   =   -331495.3746 KinEng   =    144277.8160 Temp     =       298.9120 
PotEng   =   -475773.1906 E_bond   =     56582.0735 E_angle  =     15086.8060 
E_dihed  =     11524.1942 E_impro  =         0.0000 E_vdwl   =     89927.1393 
E_coul   =    927123.9882 E_long   =  -1576017.3918 Press    =      -537.0655
------------ Step           8250 ----- CPU =     3078.482 (sec) -------------
TotEng   =   -330982.7627 KinEng   =    144528.1204 Temp     =       299.4305 
PotEng   =   -475510.8830 E_bond   =     56679.5910 E_angle  =     15043.0265 
E_dihed  =     11458.1182 E_impro  =         0.0000 E_vdwl   =     89192.4669 
E_coul   =    928113.5298 E_long   =  -1575997.6154 Press    =      -539.1602
------------ Step           8300 ----- CPU =     3098.951 (sec) -------------
TotEng   =   -330736.2541 KinEng   =    144899.2190 Temp     =       300.1994 
PotEng   =   -475635.4731 E_bond   =     56061.1138 E_angle  =     15054.2633 
E_dihed  =     11397.8468 E_impro  =         0.0000 E_vdwl   =     89374.2114 
E_coul   =    928493.3108 E_long   =  -1576016.2192 Press    =      -495.7948
------------ Step           8350 ----- CPU =     3117.865 (sec) -------------
TotEng   =   -330117.7407 KinEng   =    145094.3575 Temp     =       300.6037 
PotEng   =   -475212.0982 E_bond   =     56081.9838 E_angle  =     14926.2976 
E_dihed  =     11322.2375 E_impro  =         0.0000 E_vdwl   =     89629.9972 
E_coul   =    928836.0944 E_long   =  -1576008.7086 Press    =      -337.9105
------------ Step           8400 ----- CPU =     3140.871 (sec) -------------
TotEng   =   -329793.7925 KinEng   =    145347.3235 Temp     =       301.1278 
PotEng   =   -475141.1161 E_bond   =     56919.6662 E_angle  =     14819.4932 
E_dihed  =     11359.6578 E_impro  =         0.0000 E_vdwl   =     89734.4952 
E_coul   =    928028.5717 E_long   =  -1576003.0003 Press    =      -441.8678
------------ Step           8450 ----- CPU =     3161.652 (sec) -------------
TotEng   =   -329629.4132 KinEng   =    145117.3570 Temp     =       300.6513 
PotEng   =   -474746.7702 E_bond   =     57063.3339 E_angle  =     14717.3650 
E_dihed  =     11353.1073 E_impro  =         0.0000 E_vdwl   =     90279.1307 
E_coul   =    927861.9326 E_long   =  -1576021.6397 Press    =      -399.5929
------------ Step           8500 ----- CPU =     3182.486 (sec) -------------
TotEng   =   -329438.1924 KinEng   =    144980.4383 Temp     =       300.3676 
PotEng   =   -474418.6307 E_bond   =     56621.7409 E_angle  =     14917.3338 
E_dihed  =     11399.6772 E_impro  =         0.0000 E_vdwl   =     90006.3363 
E_coul   =    928651.3588 E_long   =  -1576015.0778 Press    =      -359.1291
------------ Step           8550 ----- CPU =     3205.416 (sec) -------------
TotEng   =   -329873.0044 KinEng   =    145135.1445 Temp     =       300.6882 
PotEng   =   -475008.1489 E_bond   =     56460.8171 E_angle  =     15030.9781 
E_dihed  =     11385.5784 E_impro  =         0.0000 E_vdwl   =     89457.2247 
E_coul   =    928683.6949 E_long   =  -1576026.4420 Press    =      -440.0272
------------ Step           8600 ----- CPU =      3224.65 (sec) -------------
TotEng   =   -330046.4246 KinEng   =    144737.1522 Temp     =       299.8636 
PotEng   =   -474783.5768 E_bond   =     56276.4724 E_angle  =     14808.6207 
E_dihed  =     11400.3057 E_impro  =         0.0000 E_vdwl   =     89095.0902 
E_coul   =    929648.9328 E_long   =  -1576012.9986 Press    =      -571.0988
------------ Step           8650 ----- CPU =     3248.813 (sec) -------------
TotEng   =   -330361.2111 KinEng   =    144423.2030 Temp     =       299.2132 
PotEng   =   -474784.4140 E_bond   =     56783.3776 E_angle  =     14800.2892 
E_dihed  =     11292.8980 E_impro  =         0.0000 E_vdwl   =     88761.6795 
E_coul   =    929598.5347 E_long   =  -1576021.1930 Press    =      -542.7705
------------ Step           8700 ----- CPU =     3266.619 (sec) -------------
TotEng   =   -330087.1383 KinEng   =    144237.5133 Temp     =       298.8285 
PotEng   =   -474324.6516 E_bond   =     56319.4141 E_angle  =     14756.6485 
E_dihed  =     11348.0983 E_impro  =         0.0000 E_vdwl   =     89262.6045 
E_coul   =    930012.0061 E_long   =  -1576023.4231 Press    =      -397.4124
------------ Step           8750 ----- CPU =     3284.476 (sec) -------------
TotEng   =   -329799.7237 KinEng   =    145081.6130 Temp     =       300.5773 
PotEng   =   -474881.3368 E_bond   =     56260.3410 E_angle  =     14602.6109 
E_dihed  =     11413.3404 E_impro  =         0.0000 E_vdwl   =     89444.6878 
E_coul   =    929429.8530 E_long   =  -1576032.1698 Press    =      -447.8675
------------ Step           8800 ----- CPU =     3303.474 (sec) -------------
TotEng   =   -329618.6964 KinEng   =    144958.1234 Temp     =       300.3214 
PotEng   =   -474576.8198 E_bond   =     56450.2600 E_angle  =     14629.5057 
E_dihed  =     11488.0320 E_impro  =         0.0000 E_vdwl   =     89795.6547 
E_coul   =    929075.2508 E_long   =  -1576015.5230 Press    =      -389.7448
------------ Step           8850 ----- CPU =     3319.467 (sec) -------------
TotEng   =   -329390.4160 KinEng   =    145334.4339 Temp     =       301.1010 
PotEng   =   -474724.8499 E_bond   =     56726.8760 E_angle  =     14634.9610 
E_dihed  =     11403.6827 E_impro  =         0.0000 E_vdwl   =     90211.9063 
E_coul   =    928314.5288 E_long   =  -1576016.8047 Press    =      -441.0198
------------ Step           8900 ----- CPU =     3337.776 (sec) -------------
TotEng   =   -329360.2500 KinEng   =    144715.3511 Temp     =       299.8184 
PotEng   =   -474075.6012 E_bond   =     56629.6197 E_angle  =     14937.8056 
E_dihed  =     11398.5565 E_impro  =         0.0000 E_vdwl   =     89199.9277 
E_coul   =    929779.4915 E_long   =  -1576021.0022 Press    =      -538.5112
------------ Step           8950 ----- CPU =     3361.968 (sec) -------------
TotEng   =   -329611.6766 KinEng   =    144374.7166 Temp     =       299.1127 
PotEng   =   -473986.3932 E_bond   =     56497.0854 E_angle  =     14703.4513 
E_dihed  =     11481.8556 E_impro  =         0.0000 E_vdwl   =     89092.2808 
E_coul   =    930244.0830 E_long   =  -1576005.1493 Press    =      -525.3081
------------ Step           9000 ----- CPU =     3379.655 (sec) -------------
TotEng   =   -329571.5292 KinEng   =    144472.8186 Temp     =       299.3160 
PotEng   =   -474044.3478 E_bond   =     56561.3170 E_angle  =     14795.9911 
E_dihed  =     11334.6478 E_impro  =         0.0000 E_vdwl   =     89555.8896 
[...]
E_coul   =    933908.2419 E_long   =  -1576054.2340 Press    =      -530.0376
------------ Step          28000 ----- CPU =     11608.15 (sec) -------------
TotEng   =   -329303.6864 KinEng   =    144414.7281 Temp     =       299.1956 
PotEng   =   -473718.4144 E_bond   =     61383.0711 E_angle  =     10135.2699 
E_dihed  =     10268.9115 E_impro  =         0.0000 E_vdwl   =     87422.2215 
E_coul   =    933093.8143 E_long   =  -1576021.7027 Press    =      -456.1703
------------ Step          28050 ----- CPU =     11626.77 (sec) -------------
TotEng   =   -329331.4213 KinEng   =    144498.0365 Temp     =       299.3682 
PotEng   =   -473829.4579 E_bond   =     61229.8068 E_angle  =     10085.7953 
E_dihed  =     10267.7072 E_impro  =         0.0000 E_vdwl   =     87496.7053 
E_coul   =    933128.7565 E_long   =  -1576038.2291 Press    =      -428.8804
------------ Step          28100 ----- CPU =     11644.63 (sec) -------------
TotEng   =   -329112.2005 KinEng   =    144476.4212 Temp     =       299.3234 
PotEng   =   -473588.6217 E_bond   =     61036.6478 E_angle  =     10209.6240 
E_dihed  =     10303.3726 E_impro  =         0.0000 E_vdwl   =     86979.5881 
E_coul   =    933916.3687 E_long   =  -1576034.2229 Press    =      -460.0173
------------ Step          28150 ----- CPU =     11665.27 (sec) -------------
TotEng   =   -328808.8278 KinEng   =    144494.7459 Temp     =       299.3614 
PotEng   =   -473303.5737 E_bond   =     61283.7973 E_angle  =     10231.9290 
E_dihed  =     10190.8289 E_impro  =         0.0000 E_vdwl   =     87279.5371 
E_coul   =    933760.5825 E_long   =  -1576050.2486 Press    =      -422.9775
------------ Step          28200 ----- CPU =      11681.3 (sec) -------------
TotEng   =   -328661.5288 KinEng   =    144613.1894 Temp     =       299.6068 
PotEng   =   -473274.7181 E_bond   =     61468.8974 E_angle  =     10360.6237 
E_dihed  =     10243.2363 E_impro  =         0.0000 E_vdwl   =     87246.9821 
E_coul   =    933462.2270 E_long   =  -1576056.6846 Press    =      -355.5283
------------ Step          28250 ----- CPU =     11697.52 (sec) -------------
TotEng   =   -328351.8419 KinEng   =    144845.9005 Temp     =       300.0889 
PotEng   =   -473197.7424 E_bond   =     61138.2077 E_angle  =     10248.1073 
E_dihed  =     10339.6860 E_impro  =         0.0000 E_vdwl   =     86377.8856 
E_coul   =    934748.8997 E_long   =  -1576050.5287 Press    =      -447.8622
------------ Step          28300 ----- CPU =     11719.89 (sec) -------------
TotEng   =   -328213.7862 KinEng   =    145390.3786 Temp     =       301.2170 
PotEng   =   -473604.1648 E_bond   =     61029.9807 E_angle  =     10185.0953 
E_dihed  =     10256.4377 E_impro  =         0.0000 E_vdwl   =     86805.3469 
E_coul   =    934172.4095 E_long   =  -1576053.4349 Press    =      -561.0360
------------ Step          28350 ----- CPU =     11740.03 (sec) -------------
TotEng   =   -328149.0033 KinEng   =    145244.6915 Temp     =       300.9151 
PotEng   =   -473393.6948 E_bond   =     61061.5774 E_angle  =     10084.1396 
E_dihed  =     10254.0866 E_impro  =         0.0000 E_vdwl   =     86909.4996 
E_coul   =    934347.4785 E_long   =  -1576050.4765 Press    =      -398.8367
------------ Step          28400 ----- CPU =     11757.13 (sec) -------------
TotEng   =   -328103.0538 KinEng   =    144870.4425 Temp     =       300.1398 
PotEng   =   -472973.4963 E_bond   =     61042.6605 E_angle  =     10197.1594 
E_dihed  =     10267.9133 E_impro  =         0.0000 E_vdwl   =     86604.6953 
E_coul   =    934960.8966 E_long   =  -1576046.8214 Press    =      -520.1281
------------ Step          28450 ----- CPU =     11775.73 (sec) -------------
TotEng   =   -328290.2192 KinEng   =    144862.2349 Temp     =       300.1228 
PotEng   =   -473152.4541 E_bond   =     61396.0016 E_angle  =     10031.8505 
E_dihed  =     10230.9802 E_impro  =         0.0000 E_vdwl   =     87088.9313 
E_coul   =    934093.2490 E_long   =  -1575993.4667 Press    =      -390.3874
------------ Step          28500 ----- CPU =      11793.1 (sec) -------------
TotEng   =   -328375.4443 KinEng   =    144882.0563 Temp     =       300.1638 
PotEng   =   -473257.5006 E_bond   =     61500.6075 E_angle  =     10080.4346 
E_dihed  =     10177.1385 E_impro  =         0.0000 E_vdwl   =     87415.9420 
E_coul   =    933589.1231 E_long   =  -1576020.7463 Press    =      -353.9438
------------ Step          28550 ----- CPU =     11812.13 (sec) -------------
TotEng   =   -328726.3323 KinEng   =    144325.9173 Temp     =       299.0116 
PotEng   =   -473052.2496 E_bond   =     61013.7162 E_angle  =     10136.3088 
E_dihed  =     10202.8187 E_impro  =         0.0000 E_vdwl   =     87499.9461 
E_coul   =    934138.6415 E_long   =  -1576043.6809 Press    =      -361.2531
------------ Step          28600 ----- CPU =     11835.16 (sec) -------------
TotEng   =   -328994.2014 KinEng   =    144491.5340 Temp     =       299.3547 
PotEng   =   -473485.7354 E_bond   =     60874.4413 E_angle  =     10083.9920 
E_dihed  =     10131.8059 E_impro  =         0.0000 E_vdwl   =     86836.5332 
E_coul   =    934619.9000 E_long   =  -1576032.4079 Press    =      -445.3305
------------ Step          28650 ----- CPU =     11855.56 (sec) -------------
TotEng   =   -329293.9530 KinEng   =    144533.6508 Temp     =       299.4420 
PotEng   =   -473827.6038 E_bond   =     61341.3342 E_angle  =     10065.3407 
E_dihed  =     10170.2933 E_impro  =         0.0000 E_vdwl   =     86832.1139 
E_coul   =    933787.0733 E_long   =  -1576023.7593 Press    =      -542.4268
------------ Step          28700 ----- CPU =      11877.6 (sec) -------------
TotEng   =   -329052.6373 KinEng   =    144008.0572 Temp     =       298.3531 
PotEng   =   -473060.6945 E_bond   =     61621.5668 E_angle  =     10300.1523 
E_dihed  =     10218.3468 E_impro  =         0.0000 E_vdwl   =     87522.6754 
E_coul   =    933319.4773 E_long   =  -1576042.9131 Press    =      -376.1596
------------ Step          28750 ----- CPU =     11898.18 (sec) -------------
TotEng   =   -328858.6698 KinEng   =    144861.4059 Temp     =       300.1210 
PotEng   =   -473720.0757 E_bond   =     61188.2649 E_angle  =      9915.0794 
E_dihed  =     10274.7933 E_impro  =         0.0000 E_vdwl   =     87677.9705 
E_coul   =    933246.1188 E_long   =  -1576022.3025 Press    =      -361.9780
------------ Step          28800 ----- CPU =     11923.05 (sec) -------------
TotEng   =   -328375.7975 KinEng   =    145009.9044 Temp     =       300.4287 
PotEng   =   -473385.7019 E_bond   =     61060.0333 E_angle  =     10211.4225 
E_dihed  =     10308.0467 E_impro  =         0.0000 E_vdwl   =     87176.1276 
E_coul   =    933886.5016 E_long   =  -1576027.8335 Press    =      -420.2535
------------ Step          28850 ----- CPU =     11942.74 (sec) -------------
TotEng   =   -328151.1781 KinEng   =    145424.0006 Temp     =       301.2866 
PotEng   =   -473575.1787 E_bond   =     61289.7187 E_angle  =     10014.8952 
E_dihed  =     10324.3809 E_impro  =         0.0000 E_vdwl   =     87639.3737 
E_coul   =    933189.7495 E_long   =  -1576033.2968 Press    =      -350.4738
------------ Step          28900 ----- CPU =     11962.36 (sec) -------------
TotEng   =   -327925.6105 KinEng   =    144791.0364 Temp     =       299.9752 
PotEng   =   -472716.6469 E_bond   =     61327.6658 E_angle  =     10138.0489 
E_dihed  =     10251.6413 E_impro  =         0.0000 E_vdwl   =     86982.0519 
E_coul   =    934610.8653 E_long   =  -1576026.9201 Press    =      -406.2268
------------ Step          28950 ----- CPU =     11981.18 (sec) -------------
TotEng   =   -328049.4295 KinEng   =    145108.9490 Temp     =       300.6339 
PotEng   =   -473158.3785 E_bond   =     61577.9184 E_angle  =     10077.9362 
E_dihed  =     10237.3456 E_impro  =         0.0000 E_vdwl   =     86774.4470 
E_coul   =    934201.0964 E_long   =  -1576027.1221 Press    =      -488.3591
------------ Step          29000 ----- CPU =     11998.93 (sec) -------------
TotEng   =   -328157.8809 KinEng   =    144959.1958 Temp     =       300.3236 
PotEng   =   -473117.0766 E_bond   =     61398.9778 E_angle  =     10175.9347 
E_dihed  =     10162.7172 E_impro  =         0.0000 E_vdwl   =     86138.0971 
E_coul   =    935042.5773 E_long   =  -1576035.3807 Press    =      -598.4106
------------ Step          29050 ----- CPU =     12016.15 (sec) -------------
TotEng   =   -328261.0091 KinEng   =    144601.2096 Temp     =       299.5820 
PotEng   =   -472862.2187 E_bond   =     61154.9387 E_angle  =     10192.2055 
E_dihed  =     10246.4806 E_impro  =         0.0000 E_vdwl   =     86405.5514 
E_coul   =    935182.7985 E_long   =  -1576044.1933 Press    =      -481.5480
------------ Step          29100 ----- CPU =     12036.58 (sec) -------------
TotEng   =   -328330.6402 KinEng   =    144544.4164 Temp     =       299.4643 
PotEng   =   -472875.0566 E_bond   =     60950.5961 E_angle  =     10216.8169 
E_dihed  =     10139.4936 E_impro  =         0.0000 E_vdwl   =     86400.8290 
E_coul   =    935416.6024 E_long   =  -1575999.3947 Press    =      -338.9105
------------ Step          29150 ----- CPU =     12055.72 (sec) -------------
TotEng   =   -328351.4648 KinEng   =    144697.6127 Temp     =       299.7817 
PotEng   =   -473049.0775 E_bond   =     61250.4516 E_angle  =      9969.6905 
E_dihed  =     10212.0036 E_impro  =         0.0000 E_vdwl   =     87010.1936 
E_coul   =    934545.6632 E_long   =  -1576037.0800 Press    =      -463.4167
------------ Step          29200 ----- CPU =      12074.6 (sec) -------------
TotEng   =   -328374.8279 KinEng   =    145585.1430 Temp     =       301.6205 
PotEng   =   -473959.9709 E_bond   =     61679.0158 E_angle  =     10008.7745 
E_dihed  =     10291.1198 E_impro  =         0.0000 E_vdwl   =     86789.1316 
E_coul   =    933316.2753 E_long   =  -1576044.2880 Press    =      -531.1567
------------ Step          29250 ----- CPU =      12093.5 (sec) -------------
TotEng   =   -328382.7751 KinEng   =    145372.6390 Temp     =       301.1802 
PotEng   =   -473755.4141 E_bond   =     61321.2858 E_angle  =     10021.4829 
E_dihed  =     10315.2568 E_impro  =         0.0000 E_vdwl   =     87152.6320 
E_coul   =    933487.4748 E_long   =  -1576053.5462 Press    =      -424.8386
------------ Step          29300 ----- CPU =     12111.46 (sec) -------------
TotEng   =   -328704.9009 KinEng   =    144874.3788 Temp     =       300.1479 
PotEng   =   -473579.2797 E_bond   =     61143.8506 E_angle  =      9997.2261 
E_dihed  =     10231.9512 E_impro  =         0.0000 E_vdwl   =     87212.9479 
E_coul   =    933868.6935 E_long   =  -1576033.9490 Press    =      -356.7713
------------ Step          29350 ----- CPU =     12129.08 (sec) -------------
TotEng   =   -328877.1823 KinEng   =    144845.8236 Temp     =       300.0888 
PotEng   =   -473723.0058 E_bond   =     61596.0095 E_angle  =      9879.5145 
E_dihed  =     10230.9528 E_impro  =         0.0000 E_vdwl   =     87115.0972 
E_coul   =    933510.1432 E_long   =  -1576054.7230 Press    =      -465.3059
------------ Step          29400 ----- CPU =     12146.67 (sec) -------------
TotEng   =   -329037.9046 KinEng   =    144650.9779 Temp     =       299.6851 
PotEng   =   -473688.8824 E_bond   =     61312.9060 E_angle  =      9923.4857 
E_dihed  =     10167.3272 E_impro  =         0.0000 E_vdwl   =     86949.5858 
E_coul   =    934009.8949 E_long   =  -1576052.0821 Press    =      -503.3395
------------ Step          29450 ----- CPU =     12164.24 (sec) -------------
TotEng   =   -329053.5956 KinEng   =    144216.9702 Temp     =       298.7859 
PotEng   =   -473270.5657 E_bond   =     60912.9955 E_angle  =     10086.0277 
E_dihed  =     10195.1493 E_impro  =         0.0000 E_vdwl   =     86369.8790 
E_coul   =    935197.8640 E_long   =  -1576032.4812 Press    =      -341.0724
------------ Step          29500 ----- CPU =     12181.77 (sec) -------------
TotEng   =   -328776.0689 KinEng   =    144323.4756 Temp     =       299.0066 
PotEng   =   -473099.5445 E_bond   =     61821.3923 E_angle  =      9947.6997 
E_dihed  =     10201.1130 E_impro  =         0.0000 E_vdwl   =     86556.2900 
E_coul   =    934405.9236 E_long   =  -1576031.9631 Press    =      -476.7123
------------ Step          29550 ----- CPU =     12199.42 (sec) -------------
TotEng   =   -328575.5774 KinEng   =    144845.0010 Temp     =       300.0871 
PotEng   =   -473420.5784 E_bond   =     61419.3839 E_angle  =      9988.6453 
E_dihed  =     10192.3755 E_impro  =         0.0000 E_vdwl   =     87101.0898 
E_coul   =    933912.6103 E_long   =  -1576034.6831 Press    =      -461.4864
------------ Step          29600 ----- CPU =     12218.14 (sec) -------------
TotEng   =   -328175.4753 KinEng   =    145182.3107 Temp     =       300.7859 
PotEng   =   -473357.7860 E_bond   =     61320.1456 E_angle  =      9870.9026 
E_dihed  =     10209.7178 E_impro  =         0.0000 E_vdwl   =     87199.3262 
E_coul   =    934054.0046 E_long   =  -1576011.8829 Press    =      -375.1721
------------ Step          29650 ----- CPU =     12237.82 (sec) -------------
TotEng   =   -327872.2297 KinEng   =    144834.2260 Temp     =       300.0647 
PotEng   =   -472706.4557 E_bond   =     61297.2159 E_angle  =      9971.6259 
E_dihed  =     10266.3770 E_impro  =         0.0000 E_vdwl   =     87312.1557 
E_coul   =    934493.7687 E_long   =  -1576047.5988 Press    =      -401.3165
------------ Step          29700 ----- CPU =     12255.98 (sec) -------------
TotEng   =   -327821.5677 KinEng   =    145253.9008 Temp     =       300.9342 
PotEng   =   -473075.4685 E_bond   =     61406.2661 E_angle  =     10015.5909 
E_dihed  =     10286.6355 E_impro  =         0.0000 E_vdwl   =     86867.6547 
E_coul   =    934384.2228 E_long   =  -1576035.8384 Press    =      -391.1527
------------ Step          29750 ----- CPU =     12276.08 (sec) -------------
TotEng   =   -327903.9112 KinEng   =    145020.3724 Temp     =       300.4504 
PotEng   =   -472924.2836 E_bond   =     61574.4538 E_angle  =      9960.6327 
E_dihed  =     10297.0762 E_impro  =         0.0000 E_vdwl   =     86658.7000 
E_coul   =    934613.0883 E_long   =  -1576028.2345 Press    =      -462.3363
------------ Step          29800 ----- CPU =     12295.39 (sec) -------------
TotEng   =   -327988.4395 KinEng   =    145109.8042 Temp     =       300.6357 
PotEng   =   -473098.2437 E_bond   =     61342.2827 E_angle  =      9834.4868 
E_dihed  =     10207.3686 E_impro  =         0.0000 E_vdwl   =     86497.3422 
E_coul   =    935061.9744 E_long   =  -1576041.6984 Press    =      -482.5383
------------ Step          29850 ----- CPU =     12316.19 (sec) -------------
TotEng   =   -328381.0661 KinEng   =    144717.1299 Temp     =       299.8221 
PotEng   =   -473098.1959 E_bond   =     61480.1522 E_angle  =      9992.6115 
E_dihed  =     10213.6845 E_impro  =         0.0000 E_vdwl   =     86616.1789 
E_coul   =    934617.4975 E_long   =  -1576018.3204 Press    =      -449.3392
------------ Step          29900 ----- CPU =     12337.02 (sec) -------------
TotEng   =   -328509.8204 KinEng   =    144794.2983 Temp     =       299.9820 
PotEng   =   -473304.1186 E_bond   =     61062.0900 E_angle  =      9992.5004 
E_dihed  =     10259.7918 E_impro  =         0.0000 E_vdwl   =     86651.5865 
E_coul   =    934762.0783 E_long   =  -1576032.1655 Press    =      -431.3645
------------ Step          29950 ----- CPU =     12355.22 (sec) -------------
TotEng   =   -328881.8573 KinEng   =    144175.1269 Temp     =       298.6992 
PotEng   =   -473056.9841 E_bond   =     61475.0792 E_angle  =     10087.3073 
E_dihed  =     10260.1199 E_impro  =         0.0000 E_vdwl   =     86621.8637 
E_coul   =    934536.2751 E_long   =  -1576037.6292 Press    =      -537.2151
------------ Step          30000 ----- CPU =      12375.4 (sec) -------------
TotEng   =   -328908.9498 KinEng   =    144732.0307 Temp     =       299.8530 
PotEng   =   -473640.9805 E_bond   =     61528.6127 E_angle  =     10004.0616 
E_dihed  =     10174.3718 E_impro  =         0.0000 E_vdwl   =     87406.0398 
E_coul   =    933264.7409 E_long   =  -1576018.8072 Press    =      -384.0363
------------ Step          30050 ----- CPU =     12395.03 (sec) -------------
TotEng   =   -328860.1913 KinEng   =    144704.7092 Temp     =       299.7964 
PotEng   =   -473564.9005 E_bond   =     61293.9381 E_angle  =     10061.6012 
E_dihed  =     10141.0197 E_impro  =         0.0000 E_vdwl   =     87109.5944 
E_coul   =    933850.8694 E_long   =  -1576021.9233 Press    =      -381.3061
------------ Step          30100 ----- CPU =     12413.02 (sec) -------------
TotEng   =   -328779.8196 KinEng   =    144746.1725 Temp     =       299.8823 
PotEng   =   -473525.9921 E_bond   =     61582.9297 E_angle  =      9832.5723 
E_dihed  =     10224.8015 E_impro  =         0.0000 E_vdwl   =     87091.9848 
E_coul   =    933770.9726 E_long   =  -1576029.2531 Press    =      -482.6754
------------ Step          30150 ----- CPU =     12430.12 (sec) -------------
TotEng   =   -328596.1664 KinEng   =    144840.9635 Temp     =       300.0787 
PotEng   =   -473437.1299 E_bond   =     61404.1564 E_angle  =     10125.1874 
E_dihed  =     10175.0648 E_impro  =         0.0000 E_vdwl   =     87445.4651 
E_coul   =    933434.6390 E_long   =  -1576021.6426 Press    =      -288.5454
------------ Step          30200 ----- CPU =      12447.8 (sec) -------------
TotEng   =   -328433.6917 KinEng   =    144658.2030 Temp     =       299.7000 
PotEng   =   -473091.8948 E_bond   =     61544.7973 E_angle  =     10148.4439 
E_dihed  =     10283.1083 E_impro  =         0.0000 E_vdwl   =     87127.8684 
E_coul   =    933816.3615 E_long   =  -1576012.4743 Press    =      -410.5395
------------ Step          30250 ----- CPU =     12468.22 (sec) -------------
TotEng   =   -328516.3715 KinEng   =    144119.9283 Temp     =       298.5849 
PotEng   =   -472636.2998 E_bond   =     61663.4768 E_angle  =     10007.9435 
E_dihed  =     10186.9403 E_impro  =         0.0000 E_vdwl   =     87051.1162 
E_coul   =    934485.3699 E_long   =  -1576031.1467 Press    =      -534.3139
------------ Step          30300 ----- CPU =     12485.57 (sec) -------------
TotEng   =   -328532.1485 KinEng   =    144301.5100 Temp     =       298.9611 
PotEng   =   -472833.6585 E_bond   =     61390.3633 E_angle  =     10076.1197 
E_dihed  =     10273.4107 E_impro  =         0.0000 E_vdwl   =     86846.2481 
E_coul   =    934622.5715 E_long   =  -1576042.3718 Press    =      -417.4614
Loop time of 12485.8 on 256 procs for 30000 steps with 161929 atoms

Performance: 0.208 ns/day, 115.609 hours/ns, 2.403 timesteps/s, 389.072 katom-step/s
72.9% CPU use with 8 MPI tasks x 32 OpenMP threads

MPI task timing breakdown:
Section |  min time  |  avg time  |  max time  |%varavg| %total
---------------------------------------------------------------
Pair    | 6316.7     | 7212       | 7910.9     | 645.4 | 57.76
Bond    | 214.24     | 278.6      | 311.09     | 166.3 |  2.23
Kspace  | 2257.4     | 2982.3     | 3956       |1070.1 | 23.89
Neigh   | 911.38     | 915.44     | 921.02     |  10.8 |  7.33
Comm    | 569.78     | 586.19     | 605.54     |  53.5 |  4.69
Output  | 80.433     | 85.408     | 96.952     |  59.8 |  0.68
Modify  | 338.27     | 340.2      | 342.36     |   6.9 |  2.72
Other   |            | 85.6       |            |       |  0.69

Nlocal:        20241.1 ave       21983 max       17322 min
Histogram: 1 0 0 1 1 1 0 0 2 2
Nghost:        40621.6 ave       41648 max       39287 min
Histogram: 2 0 0 2 0 0 0 0 1 3
Neighs:     1.0499e+07 ave 1.16522e+07 max 8.66266e+06 min
Histogram: 1 0 1 1 1 0 0 0 1 3

Total # of neighbors = 83992181
Ave neighs/atom = 518.69758
Ave special neighs/atom = 2.6209388
Neighbor list builds = 2633
Dangerous builds = 0


shell ffmpeg -f image2 -pattern_type glob -framerate 30 -i 'img/\*.jpg' -c:v libx264 vid_out.mp4
shell mpv -loop vid_out.mp4
Total wall time: 4:04:29
