LAMMPS (29 Aug 2024)
OMP_NUM_THREADS environment is not set. Defaulting to 1 thread. (src/comm.cpp:98)
  using 1 OpenMP thread(s) per MPI task
package omp 16
set 16 OpenMP thread(s) per MPI task
using multi-threaded neighbor list subroutines
#test sequence

shell rm vid_out.mp4
WARNING: Shell command 'rm vid_out.mp4' failed with error 'No such file or directory' (src/input.cpp:1288)
shell rmdir img
shell mkdir img

units real
atom_style full


bond_style harmonic
angle_style harmonic
dihedral_style fourier
improper_style none
special_bonds amber
pair_style lj/charmmfsw/coul/long 10.0 12.0
Switching to CHARMM coulomb energy conversion constant (src/KSPACE/pair_lj_charmmfsw_coul_long.cpp:63)
#pair_style lj/charmmfsw/coul/charmmfsh 10.0 12.0
pair_modify mix arithmetic
kspace_style pppm 1.0e-6
kspace_modify mesh 25 25 25
kspace_modify compute no
boundary p p p


thermo 5 #lammps will print thermo data every N steps

neighbor 2.0 bin
neigh_modify delay 5 #neigbor and neigh_modify are performance-critical


timestep 1.0
#with units=real this equals fs, typical length


read_data ../data/Barr2_MOR_noTRV-solvated-data.in
Reading data file ...
  orthogonal box = (-5 -5 -5) to (132.39413 119.50351 158.39491)
  2 by 2 by 2 MPI processor grid
  reading atoms ...
  161929 atoms
  scanning bonds ...
  4 = max bonds/atom
  scanning angles ...
  6 = max angles/atom
  scanning dihedrals ...
  18 = max dihedrals/atom
  orthogonal box = (-5 -5 -5) to (132.39413 119.50351 158.39491)
  2 by 2 by 2 MPI processor grid
  reading bonds ...
  162061 bonds
  reading angles ...
  20543 angles
  reading dihedrals ...
  32326 dihedrals
Finding 1-2 1-3 1-4 neighbors ...
  special bond factors lj:    0        0        0.5     
  special bond factors coul:  0        0        0.8333333333333334
     4 = max # of 1-2 neighbors
     9 = max # of 1-3 neighbors
    19 = max # of 1-4 neighbors
    21 = max # of special neighbors
  special bonds CPU = 0.015 seconds
  read_data CPU = 1.413 seconds
neigh_modify one 5000

thermo_style multi
dump d0 all image 5 ./img/*.jpg type type size 1024 1024 zoom 2.0
dump_modify d0 pad 9


group water molecule 2
150738 atoms in group water
group peptide molecule 1
11191 atoms in group peptide

fix 1 peptide setforce 0.0 0.0 0.0
minimize 0. 0. 300 1000000

CITE-CITE-CITE-CITE-CITE-CITE-CITE-CITE-CITE-CITE-CITE-CITE-CITE

Your simulation uses code contributions which should be cited:

- Type Label Framework: https://doi.org/10.1021/acs.jpcb.3c08419

@Article{Gissinger24,
 author = {Jacob R. Gissinger, Ilia Nikiforov, Yaser Afshar, Brendon Waters, Moon-ki Choi, Daniel S. Karls, Alexander Stukowski, Wonpil Im, Hendrik Heinz, Axel Kohlmeyer, and Ellad B. Tadmor},
 title = {Type Label Framework for Bonded Force Fields in LAMMPS},
 journal = {J. Phys. Chem. B},
 year =    2024,
 volume =  128,
 number =  13,
 pages =   {3282–-3297}
}

CITE-CITE-CITE-CITE-CITE-CITE-CITE-CITE-CITE-CITE-CITE-CITE-CITE

Switching to 'neigh_modify every 1 delay 0 check yes' setting during minimization
PPPM initialization ...
WARNING: System is not charge neutral, net charge = 2 (src/kspace.cpp:327)
  using 12-bit tables for long-range coulomb (src/kspace.cpp:342)
  G vector (1/distance) = 0.14632705
  grid = 25 25 25
  stencil order = 5
  estimated absolute RMS force accuracy = 0.99141904
  estimated relative force accuracy = 0.002985558
  using double precision FFTW3
  3d grid and FFT values/proc = 5832 2500
Generated 153 of 153 mixed pair_coeff terms from arithmetic mixing rule
Last active /omp style is dihedral_style fourier/omp
Neighbor list info ...
  update: every = 1 steps, delay = 0 steps, check = yes
  max neighbors/atom: 5000, page size: 100000
  master list distance cutoff = 14
  ghost atom cutoff = 14
  binsize = 7, bins = 20 18 24
  1 neighbor lists, perpetual/occasional/extra = 1 0 0
  (1) pair lj/charmmfsw/coul/long, perpetual
      attributes: half, newton on, omp
      pair build: half/bin/newton/omp
      stencil: half/bin/3d
      bin: standard
Per MPI rank memory allocation (min/avg/max) = 104 | 113.4 | 122.7 Mbytes
------------ Step              0 ----- CPU =            0 (sec) -------------
TotEng   =   1014266.4275 KinEng   =         0.0000 Temp     =         0.0000 
PotEng   =   1014266.4275 E_bond   =      2133.6104 E_angle  =      5782.7453 
E_dihed  =      8969.3154 E_impro  =         0.0000 E_vdwl   =     53550.6149 
E_coul   =    943830.1415 E_long   =         0.0000 Press    =      8507.2062
------------ Step              5 ----- CPU =     2.251118 (sec) -------------
TotEng   =    956148.8699 KinEng   =         0.0000 Temp     =         0.0000 
PotEng   =    956148.8699 E_bond   =     34505.8021 E_angle  =      5782.7453 
E_dihed  =      8969.3154 E_impro  =         0.0000 E_vdwl   =     50989.0023 
E_coul   =    855902.0048 E_long   =         0.0000 Press    =     -3694.8021
------------ Step             10 ----- CPU =     4.501911 (sec) -------------
TotEng   =    935820.2430 KinEng   =         0.0000 Temp     =         0.0000 
PotEng   =    935820.2430 E_bond   =     34510.8231 E_angle  =      5782.7453 
E_dihed  =      8969.3154 E_impro  =         0.0000 E_vdwl   =     53261.5857 
E_coul   =    833295.7735 E_long   =         0.0000 Press    =     -4514.8751
------------ Step             15 ----- CPU =     6.939727 (sec) -------------
TotEng   =    923783.3160 KinEng   =         0.0000 Temp     =         0.0000 
PotEng   =    923783.3160 E_bond   =     23914.3446 E_angle  =      5782.7453 
E_dihed  =      8969.3154 E_impro  =         0.0000 E_vdwl   =     55506.3205 
E_coul   =    829610.5902 E_long   =         0.0000 Press    =     -4216.4231
------------ Step             20 ----- CPU =     9.066893 (sec) -------------
TotEng   =    913071.1178 KinEng   =         0.0000 Temp     =         0.0000 
PotEng   =    913071.1178 E_bond   =     38539.3380 E_angle  =      5782.7453 
E_dihed  =      8969.3154 E_impro  =         0.0000 E_vdwl   =     58835.4056 
E_coul   =    800944.3135 E_long   =         0.0000 Press    =     -7327.0085
------------ Step             25 ----- CPU =     11.55673 (sec) -------------
TotEng   =    906400.6796 KinEng   =         0.0000 Temp     =         0.0000 
PotEng   =    906400.6796 E_bond   =     34675.1956 E_angle  =      5782.7453 
E_dihed  =      8969.3154 E_impro  =         0.0000 E_vdwl   =     61497.5250 
E_coul   =    795475.8983 E_long   =         0.0000 Press    =     -6567.5267
------------ Step             30 ----- CPU =     14.11122 (sec) -------------
TotEng   =    901867.6785 KinEng   =         0.0000 Temp     =         0.0000 
PotEng   =    901867.6785 E_bond   =     35748.0096 E_angle  =      5782.7453 
E_dihed  =      8969.3154 E_impro  =         0.0000 E_vdwl   =     63796.2624 
E_coul   =    787571.3458 E_long   =         0.0000 Press    =     -6486.9486
------------ Step             35 ----- CPU =     16.76852 (sec) -------------
TotEng   =    893945.4380 KinEng   =         0.0000 Temp     =         0.0000 
PotEng   =    893945.4380 E_bond   =     41016.7242 E_angle  =      5782.7453 
E_dihed  =      8969.3154 E_impro  =         0.0000 E_vdwl   =     70661.3492 
E_coul   =    767515.3039 E_long   =         0.0000 Press    =     -3342.2014
------------ Step             40 ----- CPU =     19.41872 (sec) -------------
TotEng   =    887238.3793 KinEng   =         0.0000 Temp     =         0.0000 
PotEng   =    887238.3793 E_bond   =     40219.9300 E_angle  =      5782.7453 
E_dihed  =      8969.3154 E_impro  =         0.0000 E_vdwl   =     75762.8274 
E_coul   =    756503.5612 E_long   =         0.0000 Press    =     -7640.6026
------------ Step             45 ----- CPU =     21.92898 (sec) -------------
TotEng   =    880985.9998 KinEng   =         0.0000 Temp     =         0.0000 
PotEng   =    880985.9998 E_bond   =     41223.5577 E_angle  =      5782.7453 
E_dihed  =      8969.3154 E_impro  =         0.0000 E_vdwl   =     84219.6599 
E_coul   =    740790.7215 E_long   =         0.0000 Press    =     -6450.7551
------------ Step             50 ----- CPU =     25.05542 (sec) -------------
TotEng   =    878430.3877 KinEng   =         0.0000 Temp     =         0.0000 
PotEng   =    878430.3877 E_bond   =     38940.7655 E_angle  =      5782.7453 
E_dihed  =      8969.3154 E_impro  =         0.0000 E_vdwl   =     89990.6661 
E_coul   =    734746.8954 E_long   =         0.0000 Press    =     -1431.9082
------------ Step             55 ----- CPU =     27.79409 (sec) -------------
TotEng   =    875510.3073 KinEng   =         0.0000 Temp     =         0.0000 
PotEng   =    875510.3073 E_bond   =     45623.6170 E_angle  =      5782.7453 
E_dihed  =      8969.3154 E_impro  =         0.0000 E_vdwl   =     96241.5035 
E_coul   =    718893.1261 E_long   =         0.0000 Press    =     -5490.2167
------------ Step             60 ----- CPU =     30.60584 (sec) -------------
TotEng   =    872164.6145 KinEng   =         0.0000 Temp     =         0.0000 
PotEng   =    872164.6145 E_bond   =     43900.6840 E_angle  =      5782.7453 
E_dihed  =      8969.3154 E_impro  =         0.0000 E_vdwl   =    100354.2387 
E_coul   =    713157.6311 E_long   =         0.0000 Press    =     -3388.6477
------------ Step             65 ----- CPU =     33.47955 (sec) -------------
TotEng   =    869248.3792 KinEng   =         0.0000 Temp     =         0.0000 
PotEng   =    869248.3792 E_bond   =     43471.1367 E_angle  =      5782.7453 
E_dihed  =      8969.3154 E_impro  =         0.0000 E_vdwl   =    103292.9732 
E_coul   =    707732.2086 E_long   =         0.0000 Press    =     -2933.1563
------------ Step             70 ----- CPU =     36.38585 (sec) -------------
TotEng   =    867643.6635 KinEng   =         0.0000 Temp     =         0.0000 
PotEng   =    867643.6635 E_bond   =     44377.2220 E_angle  =      5782.7453 
E_dihed  =      8969.3154 E_impro  =         0.0000 E_vdwl   =    104058.5585 
E_coul   =    704455.8223 E_long   =         0.0000 Press    =     -3134.9686
------------ Step             75 ----- CPU =     38.97908 (sec) -------------
TotEng   =    864645.9321 KinEng   =         0.0000 Temp     =         0.0000 
PotEng   =    864645.9321 E_bond   =     45433.0954 E_angle  =      5782.7453 
E_dihed  =      8969.3154 E_impro  =         0.0000 E_vdwl   =    103039.9453 
E_coul   =    701420.8307 E_long   =         0.0000 Press    =     -4011.1834
------------ Step             80 ----- CPU =     41.66041 (sec) -------------
TotEng   =    862730.4166 KinEng   =         0.0000 Temp     =         0.0000 
PotEng   =    862730.4166 E_bond   =     45396.2232 E_angle  =      5782.7453 
E_dihed  =      8969.3154 E_impro  =         0.0000 E_vdwl   =    103270.4044 
E_coul   =    699311.7283 E_long   =         0.0000 Press    =     -3990.9652
------------ Step             85 ----- CPU =     44.52088 (sec) -------------
TotEng   =    861428.4592 KinEng   =         0.0000 Temp     =         0.0000 
PotEng   =    861428.4592 E_bond   =     45546.0702 E_angle  =      5782.7453 
E_dihed  =      8969.3154 E_impro  =         0.0000 E_vdwl   =    103332.0567 
E_coul   =    697798.2717 E_long   =         0.0000 Press    =     -4026.5905
------------ Step             90 ----- CPU =     46.89728 (sec) -------------
TotEng   =    860170.8135 KinEng   =         0.0000 Temp     =         0.0000 
PotEng   =    860170.8135 E_bond   =     45853.6688 E_angle  =      5782.7453 
E_dihed  =      8969.3154 E_impro  =         0.0000 E_vdwl   =    104258.6088 
E_coul   =    695306.4752 E_long   =         0.0000 Press    =     -3865.4552
------------ Step             95 ----- CPU =     50.20442 (sec) -------------
TotEng   =    859742.5870 KinEng   =         0.0000 Temp     =         0.0000 
PotEng   =    859742.5870 E_bond   =     45520.9891 E_angle  =      5782.7453 
E_dihed  =      8969.3154 E_impro  =         0.0000 E_vdwl   =    104398.4117 
E_coul   =    695071.1256 E_long   =         0.0000 Press    =     -3670.9868
------------ Step            100 ----- CPU =     52.93246 (sec) -------------
TotEng   =    858921.9109 KinEng   =         0.0000 Temp     =         0.0000 
PotEng   =    858921.9109 E_bond   =     45881.2992 E_angle  =      5782.7453 
E_dihed  =      8969.3154 E_impro  =         0.0000 E_vdwl   =    105689.1759 
E_coul   =    692599.3751 E_long   =         0.0000 Press    =     -3744.1301
------------ Step            105 ----- CPU =     55.99909 (sec) -------------
TotEng   =    858304.5033 KinEng   =         0.0000 Temp     =         0.0000 
PotEng   =    858304.5033 E_bond   =     46049.7547 E_angle  =      5782.7453 
E_dihed  =      8969.3154 E_impro  =         0.0000 E_vdwl   =    106190.5684 
E_coul   =    691312.1195 E_long   =         0.0000 Press    =     -3833.7952
------------ Step            110 ----- CPU =     58.59521 (sec) -------------
TotEng   =    857759.9118 KinEng   =         0.0000 Temp     =         0.0000 
PotEng   =    857759.9118 E_bond   =     45870.8213 E_angle  =      5782.7453 
E_dihed  =      8969.3154 E_impro  =         0.0000 E_vdwl   =    106500.4853 
E_coul   =    690636.5445 E_long   =         0.0000 Press    =     -3560.1656
------------ Step            115 ----- CPU =     61.59887 (sec) -------------
TotEng   =    857252.3652 KinEng   =         0.0000 Temp     =         0.0000 
PotEng   =    857252.3652 E_bond   =     45858.4770 E_angle  =      5782.7453 
E_dihed  =      8969.3154 E_impro  =         0.0000 E_vdwl   =    107234.0748 
E_coul   =    689407.7527 E_long   =         0.0000 Press    =     -3417.6082
------------ Step            120 ----- CPU =     65.43579 (sec) -------------
TotEng   =    856920.3821 KinEng   =         0.0000 Temp     =         0.0000 
PotEng   =    856920.3821 E_bond   =     46267.9739 E_angle  =      5782.7453 
E_dihed  =      8969.3154 E_impro  =         0.0000 E_vdwl   =    107471.2038 
E_coul   =    688429.1437 E_long   =         0.0000 Press    =     -3651.8729
------------ Step            125 ----- CPU =     69.22345 (sec) -------------
TotEng   =    856590.2146 KinEng   =         0.0000 Temp     =         0.0000 
PotEng   =    856590.2146 E_bond   =     46255.5397 E_angle  =      5782.7453 
E_dihed  =      8969.3154 E_impro  =         0.0000 E_vdwl   =    108106.7812 
E_coul   =    687475.8331 E_long   =         0.0000 Press    =     -3656.0063
------------ Step            130 ----- CPU =     73.08542 (sec) -------------
TotEng   =    855973.6708 KinEng   =         0.0000 Temp     =         0.0000 
PotEng   =    855973.6708 E_bond   =     46393.1552 E_angle  =      5782.7453 
E_dihed  =      8969.3154 E_impro  =         0.0000 E_vdwl   =    108467.6133 
E_coul   =    686360.8416 E_long   =         0.0000 Press    =     -3635.2568
------------ Step            135 ----- CPU =     76.79724 (sec) -------------
TotEng   =    855529.6452 KinEng   =         0.0000 Temp     =         0.0000 
PotEng   =    855529.6452 E_bond   =     46808.7684 E_angle  =      5782.7453 
E_dihed  =      8969.3154 E_impro  =         0.0000 E_vdwl   =    109025.4765 
E_coul   =    684943.3395 E_long   =         0.0000 Press    =     -3594.3004
------------ Step            140 ----- CPU =     80.79875 (sec) -------------
TotEng   =    854798.4190 KinEng   =         0.0000 Temp     =         0.0000 
PotEng   =    854798.4190 E_bond   =     47123.5348 E_angle  =      5782.7453 
E_dihed  =      8969.3154 E_impro  =         0.0000 E_vdwl   =    109661.4883 
E_coul   =    683261.3353 E_long   =         0.0000 Press    =     -3608.9662
------------ Step            145 ----- CPU =     85.36957 (sec) -------------
TotEng   =    854163.3073 KinEng   =         0.0000 Temp     =         0.0000 
PotEng   =    854163.3073 E_bond   =     46940.4274 E_angle  =      5782.7453 
E_dihed  =      8969.3154 E_impro  =         0.0000 E_vdwl   =    110164.8615 
E_coul   =    682305.9577 E_long   =         0.0000 Press    =     -3566.9265
------------ Step            150 ----- CPU =     87.98284 (sec) -------------
TotEng   =    853085.0512 KinEng   =         0.0000 Temp     =         0.0000 
PotEng   =    853085.0512 E_bond   =     47109.3054 E_angle  =      5782.7453 
E_dihed  =      8969.3154 E_impro  =         0.0000 E_vdwl   =    111189.7591 
E_coul   =    680033.9260 E_long   =         0.0000 Press    =     -3522.4095
------------ Step            155 ----- CPU =     91.90233 (sec) -------------
TotEng   =    852546.3881 KinEng   =         0.0000 Temp     =         0.0000 
PotEng   =    852546.3881 E_bond   =     47278.6159 E_angle  =      5782.7453 
E_dihed  =      8969.3154 E_impro  =         0.0000 E_vdwl   =    111816.0346 
E_coul   =    678699.6769 E_long   =         0.0000 Press    =     -3470.9274
------------ Step            160 ----- CPU =     96.12911 (sec) -------------
TotEng   =    852102.9245 KinEng   =         0.0000 Temp     =         0.0000 
PotEng   =    852102.9245 E_bond   =     47520.8782 E_angle  =      5782.7453 
E_dihed  =      8969.3154 E_impro  =         0.0000 E_vdwl   =    112325.5214 
E_coul   =    677504.4643 E_long   =         0.0000 Press    =     -3436.2833
------------ Step            165 ----- CPU =     101.6146 (sec) -------------
TotEng   =    851539.1710 KinEng   =         0.0000 Temp     =         0.0000 
PotEng   =    851539.1710 E_bond   =     47712.8139 E_angle  =      5782.7453 
E_dihed  =      8969.3154 E_impro  =         0.0000 E_vdwl   =    113201.7803 
E_coul   =    675872.5160 E_long   =         0.0000 Press    =     -3386.7933
------------ Step            170 ----- CPU =     107.1878 (sec) -------------
TotEng   =    851244.6429 KinEng   =         0.0000 Temp     =         0.0000 
PotEng   =    851244.6429 E_bond   =     47632.1321 E_angle  =      5782.7453 
E_dihed  =      8969.3154 E_impro  =         0.0000 E_vdwl   =    113440.5917 
E_coul   =    675419.8583 E_long   =         0.0000 Press    =     -3379.4974
------------ Step            175 ----- CPU =     112.3994 (sec) -------------
TotEng   =    850920.4488 KinEng   =         0.0000 Temp     =         0.0000 
PotEng   =    850920.4488 E_bond   =     47765.5422 E_angle  =      5782.7453 
E_dihed  =      8969.3154 E_impro  =         0.0000 E_vdwl   =    113942.0926 
E_coul   =    674460.7533 E_long   =         0.0000 Press    =     -3393.0909
------------ Step            180 ----- CPU =     117.3009 (sec) -------------
TotEng   =    850660.9760 KinEng   =         0.0000 Temp     =         0.0000 
PotEng   =    850660.9760 E_bond   =     47540.6442 E_angle  =      5782.7453 
E_dihed  =      8969.3154 E_impro  =         0.0000 E_vdwl   =    114397.7999 
E_coul   =    673970.4712 E_long   =         0.0000 Press    =     -3146.0962
------------ Step            185 ----- CPU =     122.2719 (sec) -------------
TotEng   =    850462.5363 KinEng   =         0.0000 Temp     =         0.0000 
PotEng   =    850462.5363 E_bond   =     47917.0524 E_angle  =      5782.7453 
E_dihed  =      8969.3154 E_impro  =         0.0000 E_vdwl   =    114579.3246 
E_coul   =    673214.0986 E_long   =         0.0000 Press    =     -3340.7649
------------ Step            190 ----- CPU =     153.0693 (sec) -------------
TotEng   =    850409.1532 KinEng   =         0.0000 Temp     =         0.0000 
PotEng   =    850409.1532 E_bond   =     47744.3580 E_angle  =      5782.7453 
E_dihed  =      8969.3154 E_impro  =         0.0000 E_vdwl   =    114743.9146 
E_coul   =    673168.8199 E_long   =         0.0000 Press    =     -3185.9965
------------ Step            193 ----- CPU =     184.6366 (sec) -------------
TotEng   =    850270.5628 KinEng   =         0.0000 Temp     =         0.0000 
PotEng   =    850270.5628 E_bond   =     47842.5313 E_angle  =      5782.7453 
E_dihed  =      8969.3154 E_impro  =         0.0000 E_vdwl   =    114964.2927 
E_coul   =    672711.6782 E_long   =         0.0000 Press    =     -3246.8918
Loop time of 184.864 on 128 procs for 193 steps with 161929 atoms

82.5% CPU use with 8 MPI tasks x 16 OpenMP threads

Minimization stats:
  Stopping criterion = linesearch alpha is zero
  Energy initial, next-to-last, final = 
      1014266.42749471   850270.562826068   850270.562826068
  Force two-norm initial, final = 8518.0582 178.62554
  Force max component initial, final = 51.444964 46.638156
  Final line search alpha, max atom move = 2.1745994e-13 1.0141931e-11
  Iterations, force evaluations = 193 465

MPI task timing breakdown:
Section |  min time  |  avg time  |  max time  |%varavg| %total
---------------------------------------------------------------
Pair    | 104.15     | 135.97     | 168.11     | 163.9 | 73.55
Bond    | 2.4618     | 2.8361     | 3.5247     |  22.2 |  1.53
Kspace  | 0          | 0          | 0          |   0.0 |  0.00
Neigh   | 1.4134     | 1.7105     | 1.8439     |  13.3 |  0.93
Comm    | 2.3978     | 34.9       | 66.243     | 321.3 | 18.88
Output  | 5.5347     | 6.0301     | 6.8865     |  17.0 |  3.26
Modify  | 0.81981    | 0.85683    | 0.88581    |   2.5 |  0.46
Other   |            | 2.557      |            |       |  1.38

Nlocal:        20241.1 ave       24043 max       16613 min
Histogram: 1 0 1 2 0 0 3 0 0 1
Nghost:        23221.4 ave       26141 max       19819 min
Histogram: 1 0 1 1 1 0 1 2 0 1
Neighs:    9.69041e+06 ave 1.20543e+07 max 7.35877e+06 min
Histogram: 1 0 1 2 0 0 1 2 0 1

Total # of neighbors = 77523313
Ave neighs/atom = 478.74879
Ave special neighs/atom = 2.6209388
Neighbor list builds = 6
Dangerous builds = 0


dump_modify d0 boxcolor blue
dump_modify d0 every 50
kspace_modify compute yes

fix 2 water box/relax aniso -1000 dilate partial
fix 3 all nvt temp 300.0 300.0 100.0
run 15000
PPPM initialization ...
  using 12-bit tables for long-range coulomb (src/kspace.cpp:342)
  G vector (1/distance) = 0.14632705
  grid = 25 25 25
  stencil order = 5
  estimated absolute RMS force accuracy = 0.99141904
  estimated relative force accuracy = 0.002985558
  using double precision FFTW3
  3d grid and FFT values/proc = 5832 2500
Generated 153 of 153 mixed pair_coeff terms from arithmetic mixing rule
Last active /omp style is kspace_style pppm/omp
Per MPI rank memory allocation (min/avg/max) = 102.6 | 112.6 | 122.6 Mbytes
------------ Step            193 ----- CPU =            0 (sec) -------------
TotEng   =   -618584.0878 KinEng   =         0.0000 Temp     =         0.0000 
PotEng   =   -618584.0878 E_bond   =     47842.5313 E_angle  =      5782.7453 
E_dihed  =      8969.3154 E_impro  =         0.0000 E_vdwl   =    114964.2927 
E_coul   =    672711.6782 E_long   =  -1468854.6506 Press    =     -3244.5096 
Volume   =   2795041.8871
------------ Step            195 ----- CPU =    0.6598012 (sec) -------------
TotEng   =   -618577.6609 KinEng   =        91.3863 Temp     =         0.1893 
PotEng   =   -618669.0472 E_bond   =     47839.3146 E_angle  =      5782.7453 
E_dihed  =      8969.3154 E_impro  =         0.0000 E_vdwl   =    114960.8172 
E_coul   =    672732.0786 E_long   =  -1468953.3183 Press    =     -3228.8764 
Volume   =   2795041.8871
------------ Step            200 ----- CPU =     2.352854 (sec) -------------
TotEng   =   -618559.9656 KinEng   =       443.4216 Temp     =         0.9187 
PotEng   =   -619003.3872 E_bond   =     47944.7095 E_angle  =      5782.7453 
E_dihed  =      8969.3154 E_impro  =         0.0000 E_vdwl   =    114943.1385 
E_coul   =    672874.5089 E_long   =  -1469517.8049 Press    =     -3232.2010 
Volume   =   2795041.8871
------------ Step            205 ----- CPU =     4.150376 (sec) -------------
TotEng   =   -618600.0887 KinEng   =       643.0068 Temp     =         1.3322 
PotEng   =   -619243.0955 E_bond   =     47999.3060 E_angle  =      5782.7453 
E_dihed  =      8969.3154 E_impro  =         0.0000 E_vdwl   =    114924.3151 
E_coul   =    673058.2436 E_long   =  -1469977.0209 Press    =     -3249.3521 
Volume   =   2795041.8871
------------ Step            210 ----- CPU =     5.633596 (sec) -------------
TotEng   =   -618594.7457 KinEng   =       483.8216 Temp     =         1.0024 
PotEng   =   -619078.5673 E_bond   =     47937.5996 E_angle  =      5782.7453 
E_dihed  =      8969.3154 E_impro  =         0.0000 E_vdwl   =    114928.8692 
E_coul   =    673601.3523 E_long   =  -1470298.4491 Press    =     -3244.0741 
Volume   =   2795041.8871
------------ Step            215 ----- CPU =     7.076478 (sec) -------------
TotEng   =   -618522.0150 KinEng   =       551.5372 Temp     =         1.1427 
PotEng   =   -619073.5521 E_bond   =     47850.8368 E_angle  =      5782.7453 
E_dihed  =      8969.3154 E_impro  =         0.0000 E_vdwl   =    114956.7588 
E_coul   =    673872.9733 E_long   =  -1470506.1818 Press    =     -3213.5999 
Volume   =   2795041.8871
------------ Step            220 ----- CPU =     8.554814 (sec) -------------
TotEng   =   -618462.9013 KinEng   =       868.9841 Temp     =         1.8003 
PotEng   =   -619331.8854 E_bond   =     47939.8503 E_angle  =      5782.7453 
E_dihed  =      8969.3154 E_impro  =         0.0000 E_vdwl   =    115032.4249 
E_coul   =    673243.3777 E_long   =  -1470299.5990 Press    =     -3230.0661 
Volume   =   2795041.8871
------------ Step            225 ----- CPU =     9.956747 (sec) -------------
TotEng   =   -618385.0725 KinEng   =       925.8909 Temp     =         1.9182 
PotEng   =   -619310.9635 E_bond   =     48174.7816 E_angle  =      5782.7453 
E_dihed  =      8969.3154 E_impro  =         0.0000 E_vdwl   =    115130.2283 
E_coul   =    672672.6505 E_long   =  -1470040.6845 Press    =     -3240.8557 
Volume   =   2795041.8871
------------ Step            230 ----- CPU =     11.36339 (sec) -------------
TotEng   =   -618305.1370 KinEng   =       925.8063 Temp     =         1.9181 
PotEng   =   -619230.9433 E_bond   =     47890.4202 E_angle  =      5782.7453 
E_dihed  =      8969.3154 E_impro  =         0.0000 E_vdwl   =    115240.6832 
E_coul   =    672832.1443 E_long   =  -1469946.2518 Press    =     -3189.9840 
Volume   =   2795041.8871
------------ Step            235 ----- CPU =     12.84884 (sec) -------------
TotEng   =   -618250.4012 KinEng   =      1171.2769 Temp     =         2.4266 
PotEng   =   -619421.6781 E_bond   =     47927.8402 E_angle  =      5782.7453 
E_dihed  =      8969.3154 E_impro  =         0.0000 E_vdwl   =    115350.4668 
E_coul   =    672456.5641 E_long   =  -1469908.6099 Press    =     -3188.1126 
Volume   =   2795041.8871
------------ Step            240 ----- CPU =       14.271 (sec) -------------
TotEng   =   -618223.5738 KinEng   =      1350.7401 Temp     =         2.7984 
PotEng   =   -619574.3139 E_bond   =     48340.0446 E_angle  =      5782.7453 
E_dihed  =      8969.3154 E_impro  =         0.0000 E_vdwl   =    115467.3717 
E_coul   =    671999.4504 E_long   =  -1470133.2413 Press    =     -3217.1808 
Volume   =   2795041.8871
------------ Step            245 ----- CPU =     15.99809 (sec) -------------
TotEng   =   -618202.0550 KinEng   =      1395.6057 Temp     =         2.8914 
PotEng   =   -619597.6608 E_bond   =     47990.0477 E_angle  =      5782.7453 
E_dihed  =      8969.3154 E_impro  =         0.0000 E_vdwl   =    115603.8112 
E_coul   =    672475.3475 E_long   =  -1470418.9279 Press    =     -3159.0069 
Volume   =   2795041.8871
------------ Step            250 ----- CPU =     17.46188 (sec) -------------
TotEng   =   -618167.0859 KinEng   =      1584.8489 Temp     =         3.2835 
PotEng   =   -619751.9348 E_bond   =     47941.7118 E_angle  =      5782.7453 
E_dihed  =      8969.3154 E_impro  =         0.0000 E_vdwl   =    115758.9375 
E_coul   =    672277.9220 E_long   =  -1470482.5668 Press    =     -3134.4149 
Volume   =   2795041.8871
------------ Step            255 ----- CPU =     19.37332 (sec) -------------
TotEng   =   -618203.0749 KinEng   =      1843.3630 Temp     =         3.8190 
PotEng   =   -620046.4379 E_bond   =     48378.8391 E_angle  =      5782.7453 
E_dihed  =      8969.3154 E_impro  =         0.0000 E_vdwl   =    115953.2909 
E_coul   =    671288.5515 E_long   =  -1470419.1801 Press    =     -3171.5930 
Volume   =   2795041.8871
------------ Step            260 ----- CPU =     20.91821 (sec) -------------
TotEng   =   -618186.7132 KinEng   =      1994.8088 Temp     =         4.1328 
PotEng   =   -620181.5220 E_bond   =     48232.6303 E_angle  =      5782.7453 
E_dihed  =      8969.3154 E_impro  =         0.0000 E_vdwl   =    116162.4728 
E_coul   =    671060.1599 E_long   =  -1470388.8457 Press    =     -3123.4126 
Volume   =   2795041.8871
------------ Step            265 ----- CPU =     22.36889 (sec) -------------
TotEng   =   -618104.4443 KinEng   =      2175.0095 Temp     =         4.5061 
PotEng   =   -620279.4538 E_bond   =     47921.5728 E_angle  =      5782.7453 
E_dihed  =      8969.3154 E_impro  =         0.0000 E_vdwl   =    116396.0555 
E_coul   =    670828.9791 E_long   =  -1470178.1219 Press    =     -3074.0381 
Volume   =   2795041.8871
------------ Step            270 ----- CPU =     23.84504 (sec) -------------
TotEng   =   -618068.2260 KinEng   =      2460.1322 Temp     =         5.0969 
PotEng   =   -620528.3582 E_bond   =     48519.8323 E_angle  =      5782.7453 
E_dihed  =      8969.3154 E_impro  =         0.0000 E_vdwl   =    116636.1963 
E_coul   =    669743.3856 E_long   =  -1470179.8330 Press    =     -3114.5914 
Volume   =   2795041.8871
------------ Step            275 ----- CPU =     25.34923 (sec) -------------
TotEng   =   -617974.9248 KinEng   =      2705.3525 Temp     =         5.6049 
PotEng   =   -620680.2773 E_bond   =     48430.7527 E_angle  =      5782.7453 
E_dihed  =      8969.3154 E_impro  =         0.0000 E_vdwl   =    116891.6443 
E_coul   =    669610.4000 E_long   =  -1470365.1350 Press    =     -3071.4894 
Volume   =   2795041.8871
------------ Step            280 ----- CPU =     27.05241 (sec) -------------
TotEng   =   -617919.3823 KinEng   =      2895.8623 Temp     =         5.9996 
PotEng   =   -620815.2446 E_bond   =     48054.9874 E_angle  =      5782.7453 
E_dihed  =      8969.3154 E_impro  =         0.0000 E_vdwl   =    117176.0357 
E_coul   =    669612.7160 E_long   =  -1470411.0443 Press    =     -3010.6964 
Volume   =   2795041.8871
------------ Step            285 ----- CPU =     28.47899 (sec) -------------
TotEng   =   -617882.9839 KinEng   =      3138.1021 Temp     =         6.5015 
PotEng   =   -621021.0860 E_bond   =     48690.0456 E_angle  =      5782.7453 
E_dihed  =      8969.3154 E_impro  =         0.0000 E_vdwl   =    117485.7027 
E_coul   =    668531.6352 E_long   =  -1470480.5303 Press    =     -3044.0870 
Volume   =   2795041.8871
------------ Step            290 ----- CPU =     29.94512 (sec) -------------
TotEng   =   -617833.7097 KinEng   =      3407.6473 Temp     =         7.0599 
PotEng   =   -621241.3570 E_bond   =     48584.7859 E_angle  =      5782.7453 
E_dihed  =      8969.3154 E_impro  =         0.0000 E_vdwl   =    117832.6130 
E_coul   =    668075.0100 E_long   =  -1470485.8266 Press    =     -3003.5877 
Volume   =   2795041.8871
------------ Step            295 ----- CPU =     31.55639 (sec) -------------
TotEng   =   -617774.1566 KinEng   =      3627.1695 Temp     =         7.5147 
PotEng   =   -621401.3261 E_bond   =     48318.8631 E_angle  =      5782.7453 
E_dihed  =      8969.3154 E_impro  =         0.0000 E_vdwl   =    118192.4658 
E_coul   =    667691.5529 E_long   =  -1470356.2686 Press    =     -2937.8026 
Volume   =   2795041.8871
------------ Step            300 ----- CPU =     33.57905 (sec) -------------
TotEng   =   -617709.3096 KinEng   =      3844.4557 Temp     =         7.9649 
PotEng   =   -621553.7653 E_bond   =     48773.5084 E_angle  =      5782.7453 
E_dihed  =      8969.3154 E_impro  =         0.0000 E_vdwl   =    118574.2144 
E_coul   =    666594.2072 E_long   =  -1470247.7560 Press    =     -2956.6508 
Volume   =   2795041.8871
------------ Step            305 ----- CPU =     35.26323 (sec) -------------
TotEng   =   -617622.3428 KinEng   =      4118.0612 Temp     =         8.5317 
PotEng   =   -621740.4040 E_bond   =     48857.1245 E_angle  =      5782.7453 
E_dihed  =      8969.3154 E_impro  =         0.0000 E_vdwl   =    118953.3888 
E_coul   =    666020.1959 E_long   =  -1470323.1739 Press    =     -2923.2421 
Volume   =   2795041.8871
------------ Step            310 ----- CPU =     36.75522 (sec) -------------
TotEng   =   -617522.6348 KinEng   =      4369.6688 Temp     =         9.0530 
PotEng   =   -621892.3037 E_bond   =     48498.0412 E_angle  =      5782.7453 
E_dihed  =      8969.3154 E_impro  =         0.0000 E_vdwl   =    119343.7108 
E_coul   =    665854.8222 E_long   =  -1470340.9385 Press    =     -2846.6447 
Volume   =   2795041.8871
------------ Step            315 ----- CPU =     38.23248 (sec) -------------
TotEng   =   -617486.2494 KinEng   =      4573.2659 Temp     =         9.4748 
PotEng   =   -622059.5153 E_bond   =     48966.4067 E_angle  =      5782.7453 
E_dihed  =      8969.3154 E_impro  =         0.0000 E_vdwl   =    119756.3836 
E_coul   =    664885.0135 E_long   =  -1470419.3798 Press    =     -2857.6644 
Volume   =   2795041.8871
------------ Step            320 ----- CPU =     39.78336 (sec) -------------
TotEng   =   -617408.2436 KinEng   =      4831.0760 Temp     =        10.0089 
PotEng   =   -622239.3197 E_bond   =     49089.9546 E_angle  =      5782.7453 
E_dihed  =      8969.3154 E_impro  =         0.0000 E_vdwl   =    120184.6514 
E_coul   =    664254.0643 E_long   =  -1470520.0507 Press    =     -2819.7062 
Volume   =   2795041.8871
------------ Step            325 ----- CPU =     41.59407 (sec) -------------
TotEng   =   -617309.3614 KinEng   =      5104.9351 Temp     =        10.5763 
PotEng   =   -622414.2965 E_bond   =     48669.1361 E_angle  =      5782.7453 
E_dihed  =      8969.3154 E_impro  =         0.0000 E_vdwl   =    120640.6568 
E_coul   =    663957.8462 E_long   =  -1470433.9964 Press    =     -2731.0654 
Volume   =   2795041.8871
------------ Step            330 ----- CPU =     43.13039 (sec) -------------
TotEng   =   -617154.0135 KinEng   =      5312.4206 Temp     =        11.0062 
PotEng   =   -622466.4341 E_bond   =     49232.4285 E_angle  =      5782.7453 
E_dihed  =      8969.3154 E_impro  =         0.0000 E_vdwl   =    121101.9282 
E_coul   =    662839.3765 E_long   =  -1470392.2279 Press    =     -2728.9943 
Volume   =   2795041.8871
------------ Step            335 ----- CPU =     44.57004 (sec) -------------
TotEng   =   -617000.0884 KinEng   =      5538.9931 Temp     =        11.4756 
PotEng   =   -622539.0814 E_bond   =     49244.7986 E_angle  =      5782.7453 
E_dihed  =      8969.3154 E_impro  =         0.0000 E_vdwl   =    121567.4869 
E_coul   =    662262.0961 E_long   =  -1470365.5238 Press    =     -2682.6696 
Volume   =   2795041.8871
------------ Step            340 ----- CPU =      46.0805 (sec) -------------
TotEng   =   -616861.8621 KinEng   =      5808.6100 Temp     =        12.0342 
PotEng   =   -622670.4721 E_bond   =     48953.1432 E_angle  =      5782.7453 
E_dihed  =      8969.3154 E_impro  =         0.0000 E_vdwl   =    122014.1237 
E_coul   =    661964.6992 E_long   =  -1470354.4988 Press    =     -2598.4779 
Volume   =   2795041.8871
------------ Step            345 ----- CPU =     47.60658 (sec) -------------
TotEng   =   -616743.8728 KinEng   =      6024.8802 Temp     =        12.4822 
PotEng   =   -622768.7530 E_bond   =     49408.7430 E_angle  =      5782.7453 
E_dihed  =      8969.3154 E_impro  =         0.0000 E_vdwl   =    122463.0543 
E_coul   =    661027.6417 E_long   =  -1470420.2527 Press    =     -2598.7186 
Volume   =   2795041.8871
------------ Step            350 ----- CPU =     49.07314 (sec) -------------
TotEng   =   -616659.3605 KinEng   =      6213.4282 Temp     =        12.8729 
PotEng   =   -622872.7887 E_bond   =     49509.2499 E_angle  =      5782.7453 
E_dihed  =      8969.3154 E_impro  =         0.0000 E_vdwl   =    122917.3391 
E_coul   =    660468.0065 E_long   =  -1470519.4448 Press    =     -2565.5328 
Volume   =   2795041.8871
------------ Step            355 ----- CPU =     51.39692 (sec) -------------
TotEng   =   -616551.4003 KinEng   =      6449.6160 Temp     =        13.3622 
PotEng   =   -623001.0163 E_bond   =     49196.5262 E_angle  =      5782.7453 
E_dihed  =      8969.3154 E_impro  =         0.0000 E_vdwl   =    123377.4075 
E_coul   =    660202.0759 E_long   =  -1470529.0866 Press    =     -2479.9005 
Volume   =   2795041.8871
------------ Step            360 ----- CPU =     52.93202 (sec) -------------
TotEng   =   -616465.8669 KinEng   =      6679.1937 Temp     =        13.8378 
PotEng   =   -623145.0606 E_bond   =     49590.6827 E_angle  =      5782.7453 
E_dihed  =      8969.3154 E_impro  =         0.0000 E_vdwl   =    123855.3539 
E_coul   =    659153.6642 E_long   =  -1470496.8221 Press    =     -2476.3003 
Volume   =   2795041.8871
------------ Step            365 ----- CPU =     54.42264 (sec) -------------
TotEng   =   -616454.6830 KinEng   =      6854.1182 Temp     =        14.2002 
PotEng   =   -623308.8012 E_bond   =     49845.6788 E_angle  =      5782.7453 
E_dihed  =      8969.3154 E_impro  =         0.0000 E_vdwl   =    124318.2803 
E_coul   =    658272.0805 E_long   =  -1470496.9015 Press    =     -2456.0197 
Volume   =   2795041.8871
------------ Step            370 ----- CPU =     55.85646 (sec) -------------
TotEng   =   -616414.3890 KinEng   =      7056.4742 Temp     =        14.6195 
PotEng   =   -623470.8632 E_bond   =     49376.5183 E_angle  =      5782.7453 
E_dihed  =      8969.3154 E_impro  =         0.0000 E_vdwl   =    124764.4097 
E_coul   =    658052.1633 E_long   =  -1470416.0151 Press    =     -2369.6666 
Volume   =   2795041.8871
------------ Step            375 ----- CPU =     57.52993 (sec) -------------
TotEng   =   -616239.7513 KinEng   =      7304.1855 Temp     =        15.1327 
PotEng   =   -623543.9368 E_bond   =     49868.1953 E_angle  =      5782.7453 
E_dihed  =      8969.3154 E_impro  =         0.0000 E_vdwl   =    125178.2986 
E_coul   =    657119.0692 E_long   =  -1470461.5606 Press    =     -2367.4327 
Volume   =   2795041.8871
------------ Step            380 ----- CPU =     59.04028 (sec) -------------
TotEng   =   -616133.9723 KinEng   =      7499.6306 Temp     =        15.5376 
PotEng   =   -623633.6030 E_bond   =     50087.0747 E_angle  =      5782.7453 
E_dihed  =      8969.3154 E_impro  =         0.0000 E_vdwl   =    125581.7661 
E_coul   =    656469.3665 E_long   =  -1470523.8709 Press    =     -2352.3000 
Volume   =   2795041.8871
------------ Step            385 ----- CPU =     60.85066 (sec) -------------
TotEng   =   -616051.3510 KinEng   =      7664.7811 Temp     =        15.8797 
PotEng   =   -623716.1321 E_bond   =     49667.7697 E_angle  =      5782.7453 
E_dihed  =      8969.3154 E_impro  =         0.0000 E_vdwl   =    125977.5269 
E_coul   =    656436.1445 E_long   =  -1470549.6338 Press    =     -2266.9264 
Volume   =   2795041.8871
------------ Step            390 ----- CPU =     62.39834 (sec) -------------
TotEng   =   -615985.7752 KinEng   =      7872.3321 Temp     =        16.3097 
PotEng   =   -623858.1074 E_bond   =     50042.0803 E_angle  =      5782.7453 
E_dihed  =      8969.3154 E_impro  =         0.0000 E_vdwl   =    126375.6236 
E_coul   =    655550.0528 E_long   =  -1470577.9248 Press    =     -2258.9987 
Volume   =   2795041.8871
------------ Step            395 ----- CPU =     64.03455 (sec) -------------
TotEng   =   -615944.8657 KinEng   =      8068.4606 Temp     =        16.7161 
PotEng   =   -624013.3263 E_bond   =     50291.4163 E_angle  =      5782.7453 
E_dihed  =      8969.3154 E_impro  =         0.0000 E_vdwl   =    126787.5017 
E_coul   =    654715.4064 E_long   =  -1470559.7114 Press    =     -2248.6379 
Volume   =   2795041.8871
------------ Step            400 ----- CPU =     65.67163 (sec) -------------
TotEng   =   -615821.3432 KinEng   =      8225.5457 Temp     =        17.0415 
PotEng   =   -624046.8889 E_bond   =     49971.6481 E_angle  =      5782.7453 
E_dihed  =      8969.3154 E_impro  =         0.0000 E_vdwl   =    127185.0732 
E_coul   =    654568.6926 E_long   =  -1470524.3635 Press    =     -2160.8635 
Volume   =   2795041.8871
------------ Step            405 ----- CPU =     67.48189 (sec) -------------
TotEng   =   -615734.8097 KinEng   =      8400.9157 Temp     =        17.4049 
PotEng   =   -624135.7254 E_bond   =     50139.2092 E_angle  =      5782.7453 
E_dihed  =      8969.3154 E_impro  =         0.0000 E_vdwl   =    127567.2393 
E_coul   =    653906.6733 E_long   =  -1470500.9078 Press    =     -2136.3134 
Volume   =   2795041.8871
------------ Step            410 ----- CPU =      69.3259 (sec) -------------
TotEng   =   -615590.6604 KinEng   =      8607.9900 Temp     =        17.8339 
PotEng   =   -624198.6504 E_bond   =     50564.9737 E_angle  =      5782.7453 
E_dihed  =      8969.3154 E_impro  =         0.0000 E_vdwl   =    127913.1486 
E_coul   =    653125.7832 E_long   =  -1470554.6166 Press    =     -2133.7823 
Volume   =   2795041.8871
------------ Step            415 ----- CPU =     70.85009 (sec) -------------
TotEng   =   -615420.4146 KinEng   =      8797.4403 Temp     =        18.2264 
PotEng   =   -624217.8549 E_bond   =     50173.9765 E_angle  =      5782.7453 
E_dihed  =      8969.3154 E_impro  =         0.0000 E_vdwl   =    128243.3411 
E_coul   =    653186.1192 E_long   =  -1470573.3524 Press    =     -2052.6332 
Volume   =   2795041.8871
------------ Step            420 ----- CPU =     72.28844 (sec) -------------
TotEng   =   -615312.3386 KinEng   =      8959.2724 Temp     =        18.5616 
PotEng   =   -624271.6111 E_bond   =     50338.2071 E_angle  =      5782.7453 
E_dihed  =      8969.3154 E_impro  =         0.0000 E_vdwl   =    128561.8364 
E_coul   =    652697.1583 E_long   =  -1470620.8735 Press    =     -2027.2917 
Volume   =   2795041.8871
------------ Step            425 ----- CPU =     73.73623 (sec) -------------
TotEng   =   -615222.4810 KinEng   =      9150.7718 Temp     =        18.9584 
PotEng   =   -624373.2528 E_bond   =     50720.1683 E_angle  =      5782.7453 
E_dihed  =      8969.3154 E_impro  =         0.0000 E_vdwl   =    128882.6646 
E_coul   =    651911.0860 E_long   =  -1470639.2324 Press    =     -2031.0632 
Volume   =   2795041.8871
------------ Step            430 ----- CPU =     75.54515 (sec) -------------
TotEng   =   -615078.5584 KinEng   =      9352.9096 Temp     =        19.3772 
PotEng   =   -624431.4680 E_bond   =     50382.8016 E_angle  =      5782.7453 
E_dihed  =      8969.3154 E_impro  =         0.0000 E_vdwl   =    129215.2074 
E_coul   =    651822.1882 E_long   =  -1470603.7258 Press    =     -1958.9469 
Volume   =   2795041.8871
------------ Step            435 ----- CPU =     76.95584 (sec) -------------
TotEng   =   -614931.5025 KinEng   =      9511.7132 Temp     =        19.7062 
PotEng   =   -624443.2157 E_bond   =     50551.2937 E_angle  =      5782.7453 
E_dihed  =      8969.3154 E_impro  =         0.0000 E_vdwl   =    129548.8604 
E_coul   =    651307.5935 E_long   =  -1470603.0240 Press    =     -1926.8983 
Volume   =   2795041.8871
------------ Step            440 ----- CPU =     78.58474 (sec) -------------
TotEng   =   -614848.7109 KinEng   =      9664.3809 Temp     =        20.0225 
PotEng   =   -624513.0918 E_bond   =     50850.1988 E_angle  =      5782.7453 
E_dihed  =      8969.3154 E_impro  =         0.0000 E_vdwl   =    129903.3500 
E_coul   =    650569.3784 E_long   =  -1470588.0797 Press    =     -1928.0692 
Volume   =   2795041.8871
------------ Step            445 ----- CPU =     80.24383 (sec) -------------
TotEng   =   -614776.0945 KinEng   =      9828.5795 Temp     =        20.3627 
PotEng   =   -624604.6740 E_bond   =     50704.1067 E_angle  =      5782.7453 
E_dihed  =      8969.3154 E_impro  =         0.0000 E_vdwl   =    130256.9972 
E_coul   =    650307.3669 E_long   =  -1470625.2054 Press    =     -1873.6266 
Volume   =   2795041.8871
------------ Step            450 ----- CPU =     81.87579 (sec) -------------
TotEng   =   -614652.7850 KinEng   =      9977.5271 Temp     =        20.6712 
PotEng   =   -624630.3122 E_bond   =     50700.6372 E_angle  =      5782.7453 
E_dihed  =      8969.3154 E_impro  =         0.0000 E_vdwl   =    130612.9622 
E_coul   =    649958.5444 E_long   =  -1470654.5166 Press    =     -1835.8233 
Volume   =   2795041.8871
------------ Step            455 ----- CPU =     84.06427 (sec) -------------
TotEng   =   -614620.3009 KinEng   =     10130.7399 Temp     =        20.9887 
PotEng   =   -624751.0409 E_bond   =     51083.6409 E_angle  =      5782.7453 
E_dihed  =      8969.3154 E_impro  =         0.0000 E_vdwl   =    130965.4924 
E_coul   =    649136.1473 E_long   =  -1470688.3821 Press    =     -1844.0540 
Volume   =   2795041.8871
------------ Step            460 ----- CPU =     85.69761 (sec) -------------
TotEng   =   -614494.9608 KinEng   =     10300.3320 Temp     =        21.3400 
PotEng   =   -624795.2928 E_bond   =     50903.2209 E_angle  =      5782.7453 
E_dihed  =      8969.3154 E_impro  =         0.0000 E_vdwl   =    131315.4942 
E_coul   =    648919.5963 E_long   =  -1470685.6649 Press    =     -1787.1096 
Volume   =   2795041.8871
------------ Step            465 ----- CPU =     87.21017 (sec) -------------
TotEng   =   -614399.1169 KinEng   =     10474.8585 Temp     =        21.7016 
PotEng   =   -624873.9753 E_bond   =     50839.9112 E_angle  =      5782.7453 
E_dihed  =      8969.3154 E_impro  =         0.0000 E_vdwl   =    131657.8837 
E_coul   =    648543.6102 E_long   =  -1470667.4411 Press    =     -1742.8233 
Volume   =   2795041.8871
------------ Step            470 ----- CPU =     89.03989 (sec) -------------
TotEng   =   -614306.9150 KinEng   =     10643.9656 Temp     =        22.0520 
PotEng   =   -624950.8806 E_bond   =     51256.1343 E_angle  =      5782.7453 
E_dihed  =      8969.3154 E_impro  =         0.0000 E_vdwl   =    131990.1273 
E_coul   =    647713.9674 E_long   =  -1470663.1703 Press    =     -1745.2600 
Volume   =   2795041.8871
------------ Step            475 ----- CPU =     90.55481 (sec) -------------
TotEng   =   -614265.5117 KinEng   =     10813.6753 Temp     =        22.4036 
PotEng   =   -625079.1871 E_bond   =     51058.6672 E_angle  =      5782.7453 
E_dihed  =      8969.3154 E_impro  =         0.0000 E_vdwl   =    132316.8475 
E_coul   =    647446.7846 E_long   =  -1470653.5471 Press    =     -1695.3920 
Volume   =   2795041.8871
------------ Step            480 ----- CPU =     92.11974 (sec) -------------
TotEng   =   -614130.0779 KinEng   =     10993.6719 Temp     =        22.7765 
PotEng   =   -625123.7498 E_bond   =     51071.6701 E_angle  =      5782.7453 
E_dihed  =      8969.3154 E_impro  =         0.0000 E_vdwl   =    132612.6405 
E_coul   =    647138.5656 E_long   =  -1470698.6867 Press    =     -1651.2184 
Volume   =   2795041.8871
------------ Step            485 ----- CPU =     93.54666 (sec) -------------
TotEng   =   -614059.9213 KinEng   =     11168.6292 Temp     =        23.1389 
PotEng   =   -625228.5504 E_bond   =     51387.8817 E_angle  =      5782.7453 
E_dihed  =      8969.3154 E_impro  =         0.0000 E_vdwl   =    132908.0169 
E_coul   =    646437.2919 E_long   =  -1470713.8016 Press    =     -1654.3729 
Volume   =   2795041.8871
------------ Step            490 ----- CPU =     94.93539 (sec) -------------
TotEng   =   -613919.6298 KinEng   =     11331.4299 Temp     =        23.4762 
PotEng   =   -625251.0597 E_bond   =     51339.1487 E_angle  =      5782.7453 
E_dihed  =      8969.3154 E_impro  =         0.0000 E_vdwl   =    133199.3323 
E_coul   =    646193.0439 E_long   =  -1470734.6452 Press    =     -1609.8039 
Volume   =   2795041.8871
------------ Step            495 ----- CPU =     96.70862 (sec) -------------
TotEng   =   -613689.8526 KinEng   =     11499.9244 Temp     =        23.8253 
PotEng   =   -625189.7770 E_bond   =     51209.5661 E_angle  =      5782.7453 
E_dihed  =      8969.3154 E_impro  =         0.0000 E_vdwl   =    133493.3011 
E_coul   =    646079.5037 E_long   =  -1470724.2085 Press    =     -1551.5075 
Volume   =   2795041.8871
------------ Step            500 ----- CPU =     98.09408 (sec) -------------
TotEng   =   -613574.3681 KinEng   =     11668.1201 Temp     =        24.1738 
PotEng   =   -625242.4882 E_bond   =     51525.1508 E_angle  =      5782.7453 
E_dihed  =      8969.3154 E_impro  =         0.0000 E_vdwl   =    133795.8745 
E_coul   =    645383.9216 E_long   =  -1470699.4957 Press    =     -1549.7759 
Volume   =   2795041.8871
------------ Step            505 ----- CPU =      99.7568 (sec) -------------
TotEng   =   -613509.4890 KinEng   =     11827.7818 Temp     =        24.5046 
PotEng   =   -625337.2708 E_bond   =     51529.9368 E_angle  =      5782.7453 
E_dihed  =      8969.3154 E_impro  =         0.0000 E_vdwl   =    134095.3764 
E_coul   =    644978.1573 E_long   =  -1470692.8020 Press    =     -1516.5671 
Volume   =   2795041.8871
------------ Step            510 ----- CPU =     101.2519 (sec) -------------
TotEng   =   -613324.8862 KinEng   =     11976.1791 Temp     =        24.8120 
PotEng   =   -625301.0653 E_bond   =     51305.1894 E_angle  =      5782.7453 
E_dihed  =      8969.3154 E_impro  =         0.0000 E_vdwl   =    134396.2362 
E_coul   =    644937.4999 E_long   =  -1470692.0516 Press    =     -1457.5642 
Volume   =   2795041.8871
------------ Step            515 ----- CPU =     102.6731 (sec) -------------
TotEng   =   -613123.9742 KinEng   =     12123.7205 Temp     =        25.1177 
PotEng   =   -625247.6947 E_bond   =     51699.9700 E_angle  =      5782.7453 
E_dihed  =      8969.3154 E_impro  =         0.0000 E_vdwl   =    134681.8623 
E_coul   =    644348.5464 E_long   =  -1470730.1341 Press    =     -1455.8195 
Volume   =   2795041.8871
------------ Step            520 ----- CPU =     104.4643 (sec) -------------
TotEng   =   -612967.7049 KinEng   =     12276.8499 Temp     =        25.4349 
PotEng   =   -625244.5547 E_bond   =     51654.9650 E_angle  =      5782.7453 
E_dihed  =      8969.3154 E_impro  =         0.0000 E_vdwl   =    134962.4314 
E_coul   =    644131.6513 E_long   =  -1470745.6631 Press    =     -1423.8144 
Volume   =   2795041.8871
------------ Step            525 ----- CPU =     105.9402 (sec) -------------
TotEng   =   -612846.4881 KinEng   =     12419.0148 Temp     =        25.7295 
PotEng   =   -625265.5029 E_bond   =     51516.0287 E_angle  =      5782.7453 
E_dihed  =      8969.3154 E_impro  =         0.0000 E_vdwl   =    135217.6140 
E_coul   =    644018.4894 E_long   =  -1470769.6956 Press    =     -1376.6611 
Volume   =   2795041.8871
------------ Step            530 ----- CPU =     107.4141 (sec) -------------
TotEng   =   -612752.5158 KinEng   =     12563.6891 Temp     =        26.0292 
PotEng   =   -625316.2049 E_bond   =     51777.3471 E_angle  =      5782.7453 
E_dihed  =      8969.3154 E_impro  =         0.0000 E_vdwl   =    135461.3364 
E_coul   =    643451.7722 E_long   =  -1470758.7214 Press    =     -1378.4153 
Volume   =   2795041.8871
------------ Step            535 ----- CPU =     109.1199 (sec) -------------
TotEng   =   -612625.9869 KinEng   =     12726.1928 Temp     =        26.3659 
PotEng   =   -625352.1797 E_bond   =     51800.8079 E_angle  =      5782.7453 
E_dihed  =      8969.3154 E_impro  =         0.0000 E_vdwl   =    135689.1968 
E_coul   =    643147.7801 E_long   =  -1470742.0251 Press    =     -1356.8787 
Volume   =   2795041.8871
------------ Step            540 ----- CPU =     110.6192 (sec) -------------
TotEng   =   -612542.6998 KinEng   =     12881.0321 Temp     =        26.6867 
PotEng   =   -625423.7319 E_bond   =     51652.5523 E_angle  =      5782.7453 
E_dihed  =      8969.3154 E_impro  =         0.0000 E_vdwl   =    135883.2075 
E_coul   =    643023.6595 E_long   =  -1470735.2120 Press    =     -1315.6303 
Volume   =   2795041.8871
------------ Step            545 ----- CPU =     112.0686 (sec) -------------
TotEng   =   -612432.9805 KinEng   =     13036.6029 Temp     =        27.0090 
PotEng   =   -625469.5834 E_bond   =     51825.3041 E_angle  =      5782.7453 
E_dihed  =      8969.3154 E_impro  =         0.0000 E_vdwl   =    136054.4224 
E_coul   =    642629.6428 E_long   =  -1470731.0133 Press    =     -1313.9421 
Volume   =   2795041.8871
------------ Step            550 ----- CPU =     113.4773 (sec) -------------
TotEng   =   -612377.6980 KinEng   =     13214.9752 Temp     =        27.3785 
PotEng   =   -625592.6732 E_bond   =     51969.2270 E_angle  =      5782.7453 
E_dihed  =      8969.3154 E_impro  =         0.0000 E_vdwl   =    136186.7420 
E_coul   =    642260.8542 E_long   =  -1470761.5571 Press    =     -1309.1926 
Volume   =   2795041.8871
------------ Step            555 ----- CPU =     115.3717 (sec) -------------
TotEng   =   -612270.0597 KinEng   =     13407.0515 Temp     =        27.7765 
PotEng   =   -625677.1112 E_bond   =     51716.4327 E_angle  =      5782.7453 
E_dihed  =      8969.3154 E_impro  =         0.0000 E_vdwl   =    136297.7823 
E_coul   =    642328.6764 E_long   =  -1470772.0633 Press    =     -1267.9048 
Volume   =   2795041.8871
------------ Step            560 ----- CPU =     116.7297 (sec) -------------
TotEng   =   -612117.7549 KinEng   =     13594.2119 Temp     =        28.1642 
PotEng   =   -625711.9668 E_bond   =     51948.7049 E_angle  =      5782.7453 
E_dihed  =      8969.3154 E_impro  =         0.0000 E_vdwl   =    136388.3363 
E_coul   =    641990.5389 E_long   =  -1470791.6076 Press    =     -1268.4639 
Volume   =   2795041.8871
------------ Step            565 ----- CPU =     118.1298 (sec) -------------
TotEng   =   -611999.3936 KinEng   =     13771.0629 Temp     =        28.5306 
PotEng   =   -625770.4565 E_bond   =     52018.9097 E_angle  =      5782.7453 
E_dihed  =      8969.3154 E_impro  =         0.0000 E_vdwl   =    136471.0325 
E_coul   =    641770.3603 E_long   =  -1470782.8197 Press    =     -1262.1479 
Volume   =   2795041.8871
------------ Step            570 ----- CPU =     119.4559 (sec) -------------
TotEng   =   -611901.6431 KinEng   =     13955.0950 Temp     =        28.9119 
PotEng   =   -625856.7381 E_bond   =     51797.7608 E_angle  =      5782.7453 
E_dihed  =      8969.3154 E_impro  =         0.0000 E_vdwl   =    136536.2427 
E_coul   =    641830.0358 E_long   =  -1470772.8380 Press    =     -1226.8738 
Volume   =   2795041.8871
------------ Step            575 ----- CPU =     120.8758 (sec) -------------
TotEng   =   -611749.4532 KinEng   =     14141.8351 Temp     =        29.2988 
PotEng   =   -625891.2883 E_bond   =     51969.1728 E_angle  =      5782.7453 
E_dihed  =      8969.3154 E_impro  =         0.0000 E_vdwl   =    136578.9808 
E_coul   =    641575.3235 E_long   =  -1470766.8262 Press    =     -1229.1978 
Volume   =   2795041.8871
------------ Step            580 ----- CPU =     122.5809 (sec) -------------
TotEng   =   -611646.5597 KinEng   =     14307.4962 Temp     =        29.6420 
PotEng   =   -625954.0559 E_bond   =     52043.0082 E_angle  =      5782.7453 
E_dihed  =      8969.3154 E_impro  =         0.0000 E_vdwl   =    136603.8517 
E_coul   =    641415.4328 E_long   =  -1470768.4093 Press    =     -1233.2053 
Volume   =   2795041.8871
------------ Step            585 ----- CPU =     123.9393 (sec) -------------
TotEng   =   -611499.3386 KinEng   =     14469.4775 Temp     =        29.9776 
PotEng   =   -625968.8161 E_bond   =     51889.5763 E_angle  =      5782.7453 
E_dihed  =      8969.3154 E_impro  =         0.0000 E_vdwl   =    136606.1755 
E_coul   =    641574.4100 E_long   =  -1470791.0386 Press    =     -1205.0732 
Volume   =   2795041.8871
------------ Step            590 ----- CPU =     125.1794 (sec) -------------
TotEng   =   -611388.3598 KinEng   =     14640.3196 Temp     =        30.3315 
PotEng   =   -626028.6794 E_bond   =     51951.2904 E_angle  =      5782.7453 
E_dihed  =      8969.3154 E_impro  =         0.0000 E_vdwl   =    136619.7435 
E_coul   =    641441.1444 E_long   =  -1470792.9184 Press    =     -1208.6732 
Volume   =   2795041.8871
------------ Step            595 ----- CPU =     126.5056 (sec) -------------
TotEng   =   -611205.2448 KinEng   =     14797.8546 Temp     =        30.6579 
PotEng   =   -626003.0994 E_bond   =     52146.5366 E_angle  =      5782.7453 
E_dihed  =      8969.3154 E_impro  =         0.0000 E_vdwl   =    136634.9031 
E_coul   =    641267.1902 E_long   =  -1470803.7900 Press    =     -1215.3791 
Volume   =   2795041.8871
------------ Step            600 ----- CPU =     128.1617 (sec) -------------
TotEng   =   -611102.8776 KinEng   =     14946.9948 Temp     =        30.9669 
PotEng   =   -626049.8724 E_bond   =     51900.4924 E_angle  =      5782.7453 
E_dihed  =      8969.3154 E_impro  =         0.0000 E_vdwl   =    136656.2646 
E_coul   =    641431.1871 E_long   =  -1470789.8772 Press    =     -1186.3006 
Volume   =   2795041.8871
------------ Step            605 ----- CPU =     129.7136 (sec) -------------
TotEng   =   -610925.2193 KinEng   =     15094.6225 Temp     =        31.2727 
PotEng   =   -626019.8419 E_bond   =     51985.3873 E_angle  =      5782.7453 
E_dihed  =      8969.3154 E_impro  =         0.0000 E_vdwl   =    136679.0181 
E_coul   =    641346.5943 E_long   =  -1470782.9023 Press    =     -1182.1623 
Volume   =   2795041.8871
------------ Step            610 ----- CPU =     131.0237 (sec) -------------
TotEng   =   -610761.4349 KinEng   =     15240.6257 Temp     =        31.5752 
PotEng   =   -626002.0605 E_bond   =     52168.6120 E_angle  =      5782.7453 
E_dihed  =      8969.3154 E_impro  =         0.0000 E_vdwl   =    136700.6689 
E_coul   =    641155.6030 E_long   =  -1470779.0050 Press    =     -1190.2543 
Volume   =   2795041.8871
------------ Step            615 ----- CPU =     132.3364 (sec) -------------
TotEng   =   -610609.4850 KinEng   =     15388.4390 Temp     =        31.8815 
PotEng   =   -625997.9240 E_bond   =     51929.1786 E_angle  =      5782.7453 
E_dihed  =      8969.3154 E_impro  =         0.0000 E_vdwl   =    136725.4909 
E_coul   =    641378.0147 E_long   =  -1470782.6688 Press    =     -1159.1897 
Volume   =   2795041.8871
------------ Step            620 ----- CPU =     133.6222 (sec) -------------
TotEng   =   -610387.6210 KinEng   =     15531.3248 Temp     =        32.1775 
PotEng   =   -625918.9458 E_bond   =     52039.0482 E_angle  =      5782.7453 
E_dihed  =      8969.3154 E_impro  =         0.0000 E_vdwl   =    136750.0612 
E_coul   =    641343.0635 E_long   =  -1470803.1794 Press    =     -1151.1831 
Volume   =   2795041.8871
------------ Step            625 ----- CPU =     135.2074 (sec) -------------
TotEng   =   -610242.9462 KinEng   =     15670.9140 Temp     =        32.4667 
PotEng   =   -625913.8602 E_bond   =     52159.1451 E_angle  =      5782.7453 
E_dihed  =      8969.3154 E_impro  =         0.0000 E_vdwl   =    136792.6348 
E_coul   =    641189.3203 E_long   =  -1470807.0210 Press    =     -1155.6205 
Volume   =   2795041.8871
------------ Step            630 ----- CPU =     136.4549 (sec) -------------
TotEng   =   -610124.8856 KinEng   =     15806.3676 Temp     =        32.7473 
PotEng   =   -625931.2533 E_bond   =     52021.6250 E_angle  =      5782.7453 
E_dihed  =      8969.3154 E_impro  =         0.0000 E_vdwl   =    136838.7131 
E_coul   =    641275.0351 E_long   =  -1470818.6871 Press    =     -1126.7546 
Volume   =   2795041.8871
------------ Step            635 ----- CPU =       138.23 (sec) -------------
TotEng   =   -609932.4147 KinEng   =     15947.1417 Temp     =        33.0390 
PotEng   =   -625879.5564 E_bond   =     51992.2266 E_angle  =      5782.7453 
E_dihed  =      8969.3154 E_impro  =         0.0000 E_vdwl   =    136902.0910 
E_coul   =    641283.2097 E_long   =  -1470809.1444 Press    =     -1107.0429 
Volume   =   2795041.8871
------------ Step            640 ----- CPU =     139.9326 (sec) -------------
TotEng   =   -609778.4797 KinEng   =     16113.5567 Temp     =        33.3838 
PotEng   =   -625892.0364 E_bond   =     52183.1688 E_angle  =      5782.7453 
E_dihed  =      8969.3154 E_impro  =         0.0000 E_vdwl   =    136975.0006 
E_coul   =    641004.1004 E_long   =  -1470806.3668 Press    =     -1109.4388 
Volume   =   2795041.8871
------------ Step            645 ----- CPU =     141.5747 (sec) -------------
TotEng   =   -609551.9744 KinEng   =     16282.7716 Temp     =        33.7343 
PotEng   =   -625834.7460 E_bond   =     52036.4948 E_angle  =      5782.7453 
E_dihed  =      8969.3154 E_impro  =         0.0000 E_vdwl   =    137058.4427 
E_coul   =    641122.8301 E_long   =  -1470804.5743 Press    =     -1072.5073 
Volume   =   2795041.8871
------------ Step            650 ----- CPU =     143.0466 (sec) -------------
TotEng   =   -609358.0935 KinEng   =     16446.8799 Temp     =        34.0743 
PotEng   =   -625804.9734 E_bond   =     52011.6388 E_angle  =      5782.7453 
E_dihed  =      8969.3154 E_impro  =         0.0000 E_vdwl   =    137160.9282 
E_coul   =    641082.3617 E_long   =  -1470811.9627 Press    =     -1050.7023 
Volume   =   2795041.8871
------------ Step            655 ----- CPU =     144.9671 (sec) -------------
TotEng   =   -609111.9339 KinEng   =     16627.7281 Temp     =        34.4490 
PotEng   =   -625739.6621 E_bond   =     52248.3109 E_angle  =      5782.7453 
E_dihed  =      8969.3154 E_impro  =         0.0000 E_vdwl   =    137281.6980 
E_coul   =    640803.9919 E_long   =  -1470825.7235 Press    =     -1048.5808 
Volume   =   2795041.8871
------------ Step            660 ----- CPU =     146.3027 (sec) -------------
TotEng   =   -609090.1977 KinEng   =     16813.9249 Temp     =        34.8348 
PotEng   =   -625904.1226 E_bond   =     52086.0255 E_angle  =      5782.7453 
E_dihed  =      8969.3154 E_impro  =         0.0000 E_vdwl   =    137437.6324 
E_coul   =    640647.4002 E_long   =  -1470827.2414 Press    =     -1024.8427 
Volume   =   2795041.8871
------------ Step            665 ----- CPU =     147.6459 (sec) -------------
TotEng   =   -608935.0477 KinEng   =     16989.0079 Temp     =        35.1975 
PotEng   =   -625924.0556 E_bond   =     52143.5142 E_angle  =      5782.7453 
E_dihed  =      8969.3154 E_impro  =         0.0000 E_vdwl   =    137613.5776 
E_coul   =    640405.1721 E_long   =  -1470838.3802 Press    =     -1004.4051 
Volume   =   2795041.8871
------------ Step            670 ----- CPU =     148.9984 (sec) -------------
TotEng   =   -608800.5856 KinEng   =     17163.5859 Temp     =        35.5592 
PotEng   =   -625964.1714 E_bond   =     52276.5151 E_angle  =      5782.7453 
E_dihed  =      8969.3154 E_impro  =         0.0000 E_vdwl   =    137821.4430 
E_coul   =    640012.3805 E_long   =  -1470826.5707 Press    =      -999.6892 
Volume   =   2795041.8871
------------ Step            675 ----- CPU =     150.6899 (sec) -------------
TotEng   =   -608659.2482 KinEng   =     17343.4677 Temp     =        35.9319 
PotEng   =   -626002.7159 E_bond   =     52219.3344 E_angle  =      5782.7453 
E_dihed  =      8969.3154 E_impro  =         0.0000 E_vdwl   =    138036.2924 
E_coul   =    639815.1105 E_long   =  -1470825.5139 Press    =      -969.5426 
Volume   =   2795041.8871
------------ Step            680 ----- CPU =     152.0189 (sec) -------------
TotEng   =   -608405.7803 KinEng   =     17532.4392 Temp     =        36.3234 
PotEng   =   -625938.2194 E_bond   =     52197.1990 E_angle  =      5782.7453 
E_dihed  =      8969.3154 E_impro  =         0.0000 E_vdwl   =    138246.9655 
E_coul   =    639689.7036 E_long   =  -1470824.1483 Press    =      -936.7700 
Volume   =   2795041.8871
------------ Step            685 ----- CPU =     153.3242 (sec) -------------
TotEng   =   -608232.8912 KinEng   =     17740.6832 Temp     =        36.7548 
PotEng   =   -625973.5744 E_bond   =     52355.5367 E_angle  =      5782.7453 
E_dihed  =      8969.3154 E_impro  =         0.0000 E_vdwl   =    138448.9161 
E_coul   =    639298.1811 E_long   =  -1470828.2690 Press    =      -931.1668 
Volume   =   2795041.8871
------------ Step            690 ----- CPU =        155.1 (sec) -------------
TotEng   =   -608038.3799 KinEng   =     17958.0579 Temp     =        37.2052 
PotEng   =   -625996.4378 E_bond   =     52360.9172 E_angle  =      5782.7453 
E_dihed  =      8969.3154 E_impro  =         0.0000 E_vdwl   =    138634.5788 
E_coul   =    639099.5966 E_long   =  -1470843.5911 Press    =      -905.3050 
Volume   =   2795041.8871
------------ Step            695 ----- CPU =     156.5039 (sec) -------------
TotEng   =   -607878.6491 KinEng   =     18165.5481 Temp     =        37.6350 
PotEng   =   -626044.1972 E_bond   =     52277.2631 E_angle  =      5782.7453 
E_dihed  =      8969.3154 E_impro  =         0.0000 E_vdwl   =    138824.1190 
E_coul   =    638952.1828 E_long   =  -1470849.8227 Press    =      -876.2656 
Volume   =   2795041.8871
------------ Step            700 ----- CPU =     157.8617 (sec) -------------
TotEng   =   -607736.2705 KinEng   =     18362.7516 Temp     =        38.0436 
PotEng   =   -626099.0221 E_bond   =     52494.4168 E_angle  =      5782.7453 
E_dihed  =      8969.3154 E_impro  =         0.0000 E_vdwl   =    139009.5031 
E_coul   =    638505.0611 E_long   =  -1470860.0638 Press    =      -872.5280 
Volume   =   2795041.8871
------------ Step            705 ----- CPU =     159.5754 (sec) -------------
TotEng   =   -607621.8466 KinEng   =     18565.1970 Temp     =        38.4630 
PotEng   =   -626187.0437 E_bond   =     52432.3369 E_angle  =      5782.7453 
E_dihed  =      8969.3154 E_impro  =         0.0000 E_vdwl   =    139195.3961 
E_coul   =    638291.6972 E_long   =  -1470858.5345 Press    =      -847.2970 
Volume   =   2795041.8871
------------ Step            710 ----- CPU =     161.2361 (sec) -------------
TotEng   =   -607499.5800 KinEng   =     18765.5442 Temp     =        38.8781 
PotEng   =   -626265.1242 E_bond   =     52407.6532 E_angle  =      5782.7453 
E_dihed  =      8969.3154 E_impro  =         0.0000 E_vdwl   =    139363.2327 
E_coul   =    638076.5880 E_long   =  -1470864.6588 Press    =      -820.6912 
Volume   =   2795041.8871
------------ Step            715 ----- CPU =     162.5988 (sec) -------------
TotEng   =   -607290.0450 KinEng   =     18957.6418 Temp     =        39.2761 
PotEng   =   -626247.6868 E_bond   =     52550.4870 E_angle  =      5782.7453 
E_dihed  =      8969.3154 E_impro  =         0.0000 E_vdwl   =    139526.9666 
E_coul   =    637785.8516 E_long   =  -1470863.0526 Press    =      -808.8942 
Volume   =   2795041.8871
------------ Step            720 ----- CPU =     164.3008 (sec) -------------
TotEng   =   -607162.1571 KinEng   =     19177.4489 Temp     =        39.7315 
PotEng   =   -626339.6060 E_bond   =     52545.8489 E_angle  =      5782.7453 
E_dihed  =      8969.3154 E_impro  =         0.0000 E_vdwl   =    139691.4256 
E_coul   =    637541.5755 E_long   =  -1470870.5167 Press    =      -788.3722 
Volume   =   2795041.8871
------------ Step            725 ----- CPU =     166.8366 (sec) -------------
TotEng   =   -607028.6413 KinEng   =     19395.1944 Temp     =        40.1826 
PotEng   =   -626423.8357 E_bond   =     52522.8303 E_angle  =      5782.7453 
E_dihed  =      8969.3154 E_impro  =         0.0000 E_vdwl   =    139862.3450 
E_coul   =    637318.3382 E_long   =  -1470879.4098 Press    =      -762.8166 
Volume   =   2795041.8871
------------ Step            730 ----- CPU =     169.5868 (sec) -------------
TotEng   =   -606855.3153 KinEng   =     19569.5354 Temp     =        40.5438 
PotEng   =   -626424.8507 E_bond   =     52629.2358 E_angle  =      5782.7453 
E_dihed  =      8969.3154 E_impro  =         0.0000 E_vdwl   =    140060.0566 
E_coul   =    637009.8271 E_long   =  -1470876.0309 Press    =      -749.5620 
Volume   =   2795041.8871
------------ Step            735 ----- CPU =     172.5888 (sec) -------------
TotEng   =   -606694.8920 KinEng   =     19734.0789 Temp     =        40.8847 
PotEng   =   -626428.9709 E_bond   =     52677.2663 E_angle  =      5782.7453 
E_dihed  =      8969.3154 E_impro  =         0.0000 E_vdwl   =    140266.1056 
E_coul   =    636754.5964 E_long   =  -1470878.9998 Press    =      -726.5294 
Volume   =   2795041.8871
------------ Step            740 ----- CPU =     174.4644 (sec) -------------
TotEng   =   -606511.8377 KinEng   =     19925.7792 Temp     =        41.2818 
PotEng   =   -626437.6169 E_bond   =     52574.5296 E_angle  =      5782.7453 
E_dihed  =      8969.3154 E_impro  =         0.0000 E_vdwl   =    140467.4400 
E_coul   =    636642.7428 E_long   =  -1470874.3899 Press    =      -693.0161 
Volume   =   2795041.8871
------------ Step            745 ----- CPU =     177.1986 (sec) -------------
TotEng   =   -606377.8861 KinEng   =     20137.8465 Temp     =        41.7212 
PotEng   =   -626515.7327 E_bond   =     52754.4240 E_angle  =      5782.7453 
E_dihed  =      8969.3154 E_impro  =         0.0000 E_vdwl   =    140646.1711 
E_coul   =    636211.6188 E_long   =  -1470880.0073 Press    =      -688.5550 
Volume   =   2795041.8871
------------ Step            750 ----- CPU =     179.4975 (sec) -------------
TotEng   =   -606299.2556 KinEng   =     20349.4864 Temp     =        42.1597 
PotEng   =   -626648.7420 E_bond   =     52738.9813 E_angle  =      5782.7453 
E_dihed  =      8969.3154 E_impro  =         0.0000 E_vdwl   =    140822.6405 
E_coul   =    635917.9753 E_long   =  -1470880.3997 Press    =      -675.3509 
Volume   =   2795041.8871
------------ Step            755 ----- CPU =     182.2944 (sec) -------------
TotEng   =   -606009.7665 KinEng   =     20551.9949 Temp     =        42.5792 
PotEng   =   -626561.7614 E_bond   =     52688.9380 E_angle  =      5782.7453 
E_dihed  =      8969.3154 E_impro  =         0.0000 E_vdwl   =    140995.8554 
E_coul   =    635888.8690 E_long   =  -1470887.4845 Press    =      -642.8181 
Volume   =   2795041.8871
------------ Step            760 ----- CPU =     183.9024 (sec) -------------
TotEng   =   -605708.1543 KinEng   =     20756.2778 Temp     =        43.0025 
PotEng   =   -626464.4321 E_bond   =     52836.0403 E_angle  =      5782.7453 
E_dihed  =      8969.3154 E_impro  =         0.0000 E_vdwl   =    141162.8683 
E_coul   =    635682.0789 E_long   =  -1470897.4804 Press    =      -627.9487 
Volume   =   2795041.8871
------------ Step            765 ----- CPU =     185.5953 (sec) -------------
TotEng   =   -605408.0714 KinEng   =     20955.8761 Temp     =        43.4160 
PotEng   =   -626363.9475 E_bond   =     52812.3234 E_angle  =      5782.7453 
E_dihed  =      8969.3154 E_impro  =         0.0000 E_vdwl   =    141331.3096 
E_coul   =    635641.5812 E_long   =  -1470901.2224 Press    =      -600.8411 
Volume   =   2795041.8871
------------ Step            770 ----- CPU =     187.3513 (sec) -------------
TotEng   =   -605223.2261 KinEng   =     21166.5179 Temp     =        43.8524 
PotEng   =   -626389.7441 E_bond   =     52783.2268 E_angle  =      5782.7453 
E_dihed  =      8969.3154 E_impro  =         0.0000 E_vdwl   =    141494.1910 
E_coul   =    635492.2306 E_long   =  -1470911.4532 Press    =      -575.4504 
Volume   =   2795041.8871
------------ Step            775 ----- CPU =     188.9544 (sec) -------------
TotEng   =   -605115.6045 KinEng   =     21392.9752 Temp     =        44.3215 
PotEng   =   -626508.5796 E_bond   =     52835.7892 E_angle  =      5782.7453 
E_dihed  =      8969.3154 E_impro  =         0.0000 E_vdwl   =    141664.4646 
E_coul   =    635151.2396 E_long   =  -1470912.1337 Press    =      -566.6744 
Volume   =   2795041.8871
------------ Step            780 ----- CPU =     190.5427 (sec) -------------
TotEng   =   -604918.9533 KinEng   =     21601.3353 Temp     =        44.7532 
PotEng   =   -626520.2885 E_bond   =     52888.9413 E_angle  =      5782.7453 
E_dihed  =      8969.3154 E_impro  =         0.0000 E_vdwl   =    141826.0543 
E_coul   =    634929.5980 E_long   =  -1470916.9428 Press    =      -547.5762 
Volume   =   2795041.8871
------------ Step            785 ----- CPU =     192.0799 (sec) -------------
TotEng   =   -604727.8668 KinEng   =     21810.4835 Temp     =        45.1865 
PotEng   =   -626538.3503 E_bond   =     52799.9692 E_angle  =      5782.7453 
E_dihed  =      8969.3154 E_impro  =         0.0000 E_vdwl   =    141981.5306 
E_coul   =    634842.7378 E_long   =  -1470914.6485 Press    =      -519.3079 
Volume   =   2795041.8871
------------ Step            790 ----- CPU =     193.9735 (sec) -------------
TotEng   =   -604540.3664 KinEng   =     22046.6016 Temp     =        45.6757 
PotEng   =   -626586.9681 E_bond   =     52915.7842 E_angle  =      5782.7453 
E_dihed  =      8969.3154 E_impro  =         0.0000 E_vdwl   =    142121.2969 
E_coul   =    634542.4075 E_long   =  -1470918.5173 Press    =      -507.7033 
Volume   =   2795041.8871
------------ Step            795 ----- CPU =      195.669 (sec) -------------
TotEng   =   -604271.1811 KinEng   =     22284.4818 Temp     =        46.1686 
PotEng   =   -626555.6628 E_bond   =     52955.3254 E_angle  =      5782.7453 
E_dihed  =      8969.3154 E_impro  =         0.0000 E_vdwl   =    142251.4610 
E_coul   =    634408.9354 E_long   =  -1470923.4453 Press    =      -485.9803 
Volume   =   2795041.8871
------------ Step            800 ----- CPU =     197.4228 (sec) -------------
TotEng   =   -604061.9795 KinEng   =     22510.3879 Temp     =        46.6366 
PotEng   =   -626572.3674 E_bond   =     52865.3894 E_angle  =      5782.7453 
E_dihed  =      8969.3154 E_impro  =         0.0000 E_vdwl   =    142388.3767 
E_coul   =    634348.3689 E_long   =  -1470926.5631 Press    =      -458.0701 
Volume   =   2795041.8871
------------ Step            805 ----- CPU =     200.0085 (sec) -------------
TotEng   =   -603870.4086 KinEng   =     22728.3962 Temp     =        47.0882 
PotEng   =   -626598.8048 E_bond   =     52987.0270 E_angle  =      5782.7453 
E_dihed  =      8969.3154 E_impro  =         0.0000 E_vdwl   =    142524.0524 
E_coul   =    634072.5698 E_long   =  -1470934.5147 Press    =      -446.2925 
Volume   =   2795041.8871
------------ Step            810 ----- CPU =     201.5472 (sec) -------------
TotEng   =   -603659.0299 KinEng   =     22931.8777 Temp     =        47.5098 
PotEng   =   -626590.9076 E_bond   =     52960.5961 E_angle  =      5782.7453 
E_dihed  =      8969.3154 E_impro  =         0.0000 E_vdwl   =    142663.3473 
E_coul   =    633963.9571 E_long   =  -1470930.8688 Press    =      -425.9584 
Volume   =   2795041.8871
------------ Step            815 ----- CPU =     203.0296 (sec) -------------
TotEng   =   -603473.4581 KinEng   =     23149.6768 Temp     =        47.9610 
PotEng   =   -626623.1349 E_bond   =     52941.6786 E_angle  =      5782.7453 
E_dihed  =      8969.3154 E_impro  =         0.0000 E_vdwl   =    142790.1225 
E_coul   =    633827.4981 E_long   =  -1470934.4947 Press    =      -405.7391 
Volume   =   2795041.8871
------------ Step            820 ----- CPU =     205.0473 (sec) -------------
TotEng   =   -603222.1163 KinEng   =     23371.8291 Temp     =        48.4213 
PotEng   =   -626593.9454 E_bond   =     52988.8761 E_angle  =      5782.7453 
E_dihed  =      8969.3154 E_impro  =         0.0000 E_vdwl   =    142918.9937 
E_coul   =    633678.2451 E_long   =  -1470932.1209 Press    =      -390.4869 
Volume   =   2795041.8871
------------ Step            825 ----- CPU =      206.602 (sec) -------------
TotEng   =   -603014.4559 KinEng   =     23583.9991 Temp     =        48.8609 
PotEng   =   -626598.4550 E_bond   =     53045.2046 E_angle  =      5782.7453 
E_dihed  =      8969.3154 E_impro  =         0.0000 E_vdwl   =    143051.4311 
E_coul   =    633484.0666 E_long   =  -1470931.2180 Press    =      -376.8966 
Volume   =   2795041.8871
------------ Step            830 ----- CPU =      208.315 (sec) -------------
TotEng   =   -602732.7243 KinEng   =     23783.0186 Temp     =        49.2732 
PotEng   =   -626515.7429 E_bond   =     53016.3768 E_angle  =      5782.7453 
E_dihed  =      8969.3154 E_impro  =         0.0000 E_vdwl   =    143201.2440 
E_coul   =    633447.0230 E_long   =  -1470932.4474 Press    =      -350.0674 
Volume   =   2795041.8871
------------ Step            835 ----- CPU =     210.4899 (sec) -------------
TotEng   =   -602577.5573 KinEng   =     23964.6144 Temp     =        49.6494 
PotEng   =   -626542.1717 E_bond   =     53055.8074 E_angle  =      5782.7453 
E_dihed  =      8969.3154 E_impro  =         0.0000 E_vdwl   =    143375.0112 
E_coul   =    633207.8745 E_long   =  -1470932.9255 Press    =      -337.2089 
Volume   =   2795041.8871
------------ Step            840 ----- CPU =     212.1133 (sec) -------------
TotEng   =   -602304.9755 KinEng   =     24151.3087 Temp     =        50.0362 
PotEng   =   -626456.2842 E_bond   =     53135.8191 E_angle  =      5782.7453 
E_dihed  =      8969.3154 E_impro  =         0.0000 E_vdwl   =    143554.4776 
E_coul   =    633043.3460 E_long   =  -1470941.9875 Press    =      -316.5096 
Volume   =   2795041.8871
------------ Step            845 ----- CPU =     213.7327 (sec) -------------
TotEng   =   -602022.1550 KinEng   =     24328.8718 Temp     =        50.4041 
PotEng   =   -626351.0268 E_bond   =     53082.0160 E_angle  =      5782.7453 
E_dihed  =      8969.3154 E_impro  =         0.0000 E_vdwl   =    143742.3991 
E_coul   =    633022.0477 E_long   =  -1470949.5504 Press    =      -285.6369 
Volume   =   2795041.8871
------------ Step            850 ----- CPU =     215.5845 (sec) -------------
TotEng   =   -601744.2028 KinEng   =     24510.6477 Temp     =        50.7807 
PotEng   =   -626254.8504 E_bond   =     53153.3366 E_angle  =      5782.7453 
E_dihed  =      8969.3154 E_impro  =         0.0000 E_vdwl   =    143925.7103 
E_coul   =    632872.2562 E_long   =  -1470958.2141 Press    =      -263.4764 
Volume   =   2795041.8871
------------ Step            855 ----- CPU =     217.5646 (sec) -------------
TotEng   =   -601487.1407 KinEng   =     24708.2474 Temp     =        51.1901 
PotEng   =   -626195.3881 E_bond   =     53176.7119 E_angle  =      5782.7453 
E_dihed  =      8969.3154 E_impro  =         0.0000 E_vdwl   =    144104.0952 
E_coul   =    632729.7561 E_long   =  -1470958.0119 Press    =      -241.3583 
Volume   =   2795041.8871
------------ Step            860 ----- CPU =     219.1284 (sec) -------------
TotEng   =   -601201.5497 KinEng   =     24899.7628 Temp     =        51.5868 
PotEng   =   -626101.3126 E_bond   =     53203.2056 E_angle  =      5782.7453 
E_dihed  =      8969.3154 E_impro  =         0.0000 E_vdwl   =    144273.1907 
E_coul   =    632633.9965 E_long   =  -1470963.7660 Press    =      -214.5380 
Volume   =   2795041.8871
------------ Step            865 ----- CPU =      221.209 (sec) -------------
TotEng   =   -600931.6536 KinEng   =     25094.3750 Temp     =        51.9900 
PotEng   =   -626026.0285 E_bond   =     53227.9974 E_angle  =      5782.7453 
E_dihed  =      8969.3154 E_impro  =         0.0000 E_vdwl   =    144446.8340 
E_coul   =    632513.5862 E_long   =  -1470966.5069 Press    =      -190.7385 
Volume   =   2795041.8871
------------ Step            870 ----- CPU =      222.866 (sec) -------------
TotEng   =   -600685.5768 KinEng   =     25300.0567 Temp     =        52.4162 
PotEng   =   -625985.6335 E_bond   =     53273.1281 E_angle  =      5782.7453 
E_dihed  =      8969.3154 E_impro  =         0.0000 E_vdwl   =    144621.0448 
E_coul   =    632338.6738 E_long   =  -1470970.5410 Press    =      -170.3820 
Volume   =   2795041.8871
------------ Step            875 ----- CPU =     224.8768 (sec) -------------
TotEng   =   -600544.0012 KinEng   =     25517.8393 Temp     =        52.8674 
PotEng   =   -626061.8406 E_bond   =     53292.5239 E_angle  =      5782.7453 
E_dihed  =      8969.3154 E_impro  =         0.0000 E_vdwl   =    144791.8045 
[...]
PotEng   =   -461329.1472 E_bond   =     57851.1587 E_angle  =      5438.0041 
E_dihed  =      9128.1319 E_impro  =         0.0000 E_vdwl   =     80055.6298 
E_coul   =    857806.6684 E_long   =  -1471608.7400 Press    =      -188.7319
------------ Step          29965 ----- CPU =     5837.305 (sec) -------------
TotEng   =   -316196.2569 KinEng   =    145280.1735 Temp     =       300.9886 
PotEng   =   -461476.4305 E_bond   =     57876.1007 E_angle  =      5481.3292 
E_dihed  =      9131.5022 E_impro  =         0.0000 E_vdwl   =     79964.8097 
E_coul   =    857686.2327 E_long   =  -1471616.4049 Press    =      -201.2213
------------ Step          29970 ----- CPU =     5839.382 (sec) -------------
TotEng   =   -316160.3839 KinEng   =    145096.2384 Temp     =       300.6076 
PotEng   =   -461256.6224 E_bond   =     58244.4008 E_angle  =      5407.2805 
E_dihed  =      9110.0757 E_impro  =         0.0000 E_vdwl   =     79940.7411 
E_coul   =    857642.9088 E_long   =  -1471602.0294 Press    =      -311.6656
------------ Step          29975 ----- CPU =     5841.801 (sec) -------------
TotEng   =   -316125.4857 KinEng   =    144872.8298 Temp     =       300.1447 
PotEng   =   -460998.3154 E_bond   =     57691.2474 E_angle  =      5425.6127 
E_dihed  =      9097.0525 E_impro  =         0.0000 E_vdwl   =     79993.3119 
E_coul   =    858392.2018 E_long   =  -1471597.7416 Press    =      -236.5289
------------ Step          29980 ----- CPU =      5844.05 (sec) -------------
TotEng   =   -316180.3532 KinEng   =    144749.5151 Temp     =       299.8892 
PotEng   =   -460929.8683 E_bond   =     57629.8562 E_angle  =      5430.0468 
E_dihed  =      9107.3205 E_impro  =         0.0000 E_vdwl   =     80058.5616 
E_coul   =    858439.8206 E_long   =  -1471595.4740 Press    =      -192.7845
------------ Step          29985 ----- CPU =     5847.182 (sec) -------------
TotEng   =   -316123.8174 KinEng   =    144640.5136 Temp     =       299.6634 
PotEng   =   -460764.3310 E_bond   =     58113.6209 E_angle  =      5448.3959 
E_dihed  =      9111.3844 E_impro  =         0.0000 E_vdwl   =     80163.1829 
E_coul   =    857983.2584 E_long   =  -1471584.1736 Press    =      -210.1490
------------ Step          29990 ----- CPU =     5850.899 (sec) -------------
TotEng   =   -316061.4373 KinEng   =    144612.6949 Temp     =       299.6058 
PotEng   =   -460674.1322 E_bond   =     57832.8888 E_angle  =      5436.0707 
E_dihed  =      9094.2839 E_impro  =         0.0000 E_vdwl   =     80282.9321 
E_coul   =    858269.9703 E_long   =  -1471590.2780 Press    =      -127.7560
------------ Step          29995 ----- CPU =     5852.986 (sec) -------------
TotEng   =   -315940.9145 KinEng   =    144420.5655 Temp     =       299.2077 
PotEng   =   -460361.4800 E_bond   =     57576.0878 E_angle  =      5436.2317 
E_dihed  =      9061.6432 E_impro  =         0.0000 E_vdwl   =     80312.9490 
E_coul   =    858861.5239 E_long   =  -1471609.9156 Press    =      -102.2715
------------ Step          30000 ----- CPU =     5856.738 (sec) -------------
TotEng   =   -315956.6720 KinEng   =    144129.5248 Temp     =       298.6047 
PotEng   =   -460086.1969 E_bond   =     58065.2418 E_angle  =      5406.1461 
E_dihed  =      9046.3468 E_impro  =         0.0000 E_vdwl   =     80272.2656 
E_coul   =    858731.0612 E_long   =  -1471607.2584 Press    =      -102.7894
------------ Step          30005 ----- CPU =     5861.024 (sec) -------------
TotEng   =   -315919.9541 KinEng   =    144444.0848 Temp     =       299.2564 
PotEng   =   -460364.0389 E_bond   =     57789.2771 E_angle  =      5440.4291 
E_dihed  =      9079.0854 E_impro  =         0.0000 E_vdwl   =     80179.2014 
E_coul   =    858747.0188 E_long   =  -1471599.0507 Press    =      -112.7993
------------ Step          30010 ----- CPU =     5864.353 (sec) -------------
TotEng   =   -316016.1542 KinEng   =    144908.4461 Temp     =       300.2185 
PotEng   =   -460924.6003 E_bond   =     57712.9059 E_angle  =      5345.2965 
E_dihed  =      9105.6003 E_impro  =         0.0000 E_vdwl   =     80102.4492 
E_coul   =    858403.5958 E_long   =  -1471594.4480 Press    =       -80.8103
------------ Step          30015 ----- CPU =     5866.785 (sec) -------------
TotEng   =   -315917.1675 KinEng   =    144958.4004 Temp     =       300.3220 
PotEng   =   -460875.5680 E_bond   =     58094.5316 E_angle  =      5413.7721 
E_dihed  =      9089.4885 E_impro  =         0.0000 E_vdwl   =     80110.4672 
E_coul   =    858002.4554 E_long   =  -1471586.2827 Press    =      -142.2619
------------ Step          30020 ----- CPU =     5870.275 (sec) -------------
TotEng   =   -315968.7316 KinEng   =    145079.7874 Temp     =       300.5735 
PotEng   =   -461048.5190 E_bond   =     57802.3865 E_angle  =      5325.7511 
E_dihed  =      9069.8148 E_impro  =         0.0000 E_vdwl   =     80151.1651 
E_coul   =    858196.0422 E_long   =  -1471593.6787 Press    =       -89.9660
------------ Step          30025 ----- CPU =     5873.134 (sec) -------------
TotEng   =   -316063.2952 KinEng   =    144770.5650 Temp     =       299.9328 
PotEng   =   -460833.8602 E_bond   =     57590.7028 E_angle  =      5436.0277 
E_dihed  =      9064.0150 E_impro  =         0.0000 E_vdwl   =     80170.5887 
E_coul   =    858504.4129 E_long   =  -1471599.6073 Press    =       -51.1038
------------ Step          30030 ----- CPU =     5875.286 (sec) -------------
TotEng   =   -316143.2219 KinEng   =    144741.3528 Temp     =       299.8723 
PotEng   =   -460884.5747 E_bond   =     57784.7336 E_angle  =      5509.7597 
E_dihed  =      9065.6614 E_impro  =         0.0000 E_vdwl   =     80142.4687 
E_coul   =    858220.2282 E_long   =  -1471607.4262 Press    =      -105.9060
------------ Step          30035 ----- CPU =     5877.846 (sec) -------------
TotEng   =   -316172.6684 KinEng   =    144801.0631 Temp     =       299.9960 
PotEng   =   -460973.7315 E_bond   =     57908.4239 E_angle  =      5535.7628 
E_dihed  =      9065.8548 E_impro  =         0.0000 E_vdwl   =     80093.0832 
E_coul   =    858038.9836 E_long   =  -1471615.8397 Press    =      -159.0574
------------ Step          30040 ----- CPU =     5880.379 (sec) -------------
TotEng   =   -316219.5324 KinEng   =    144665.1184 Temp     =       299.7144 
PotEng   =   -460884.6508 E_bond   =     57821.3910 E_angle  =      5456.9017 
E_dihed  =      9071.1067 E_impro  =         0.0000 E_vdwl   =     80105.7038 
E_coul   =    858270.2484 E_long   =  -1471610.0024 Press    =      -159.8555
------------ Step          30045 ----- CPU =     5883.661 (sec) -------------
TotEng   =   -316299.3385 KinEng   =    144856.7851 Temp     =       300.1115 
PotEng   =   -461156.1236 E_bond   =     57756.5321 E_angle  =      5461.1389 
E_dihed  =      9081.3451 E_impro  =         0.0000 E_vdwl   =     80105.1064 
E_coul   =    858047.4552 E_long   =  -1471607.7012 Press    =      -172.2653
------------ Step          30050 ----- CPU =     5886.229 (sec) -------------
TotEng   =   -316351.3288 KinEng   =    144944.7433 Temp     =       300.2937 
PotEng   =   -461296.0722 E_bond   =     58105.7853 E_angle  =      5535.1453 
E_dihed  =      9082.2508 E_impro  =         0.0000 E_vdwl   =     80099.9437 
E_coul   =    857488.6800 E_long   =  -1471607.8774 Press    =      -250.5317
------------ Step          30055 ----- CPU =      5888.74 (sec) -------------
TotEng   =   -316487.5095 KinEng   =    145161.3831 Temp     =       300.7425 
PotEng   =   -461648.8926 E_bond   =     57783.2895 E_angle  =      5412.6793 
E_dihed  =      9070.2058 E_impro  =         0.0000 E_vdwl   =     80173.9315 
E_coul   =    857515.1991 E_long   =  -1471604.1977 Press    =      -181.1403
------------ Step          30060 ----- CPU =     5891.767 (sec) -------------
TotEng   =   -316411.7973 KinEng   =    145123.0581 Temp     =       300.6631 
PotEng   =   -461534.8554 E_bond   =     57702.3290 E_angle  =      5399.0536 
E_dihed  =      9072.8647 E_impro  =         0.0000 E_vdwl   =     80314.8356 
E_coul   =    857579.9705 E_long   =  -1471603.9088 Press    =      -177.2250
------------ Step          30065 ----- CPU =     5893.829 (sec) -------------
TotEng   =   -316235.0757 KinEng   =    144746.2782 Temp     =       299.8825 
PotEng   =   -460981.3539 E_bond   =     58073.6974 E_angle  =      5445.0835 
E_dihed  =      9090.4605 E_impro  =         0.0000 E_vdwl   =     80477.8228 
E_coul   =    857526.3054 E_long   =  -1471594.7236 Press    =      -160.2528
------------ Step          30070 ----- CPU =     5897.912 (sec) -------------
TotEng   =   -316203.1326 KinEng   =    144621.2572 Temp     =       299.6235 
PotEng   =   -460824.3898 E_bond   =     57951.2092 E_angle  =      5447.4127 
E_dihed  =      9107.1959 E_impro  =         0.0000 E_vdwl   =     80640.0535 
E_coul   =    857626.8773 E_long   =  -1471597.1384 Press    =      -119.5154
------------ Step          30075 ----- CPU =     5900.132 (sec) -------------
TotEng   =   -316099.7636 KinEng   =    144841.6847 Temp     =       300.0802 
PotEng   =   -460941.4483 E_bond   =     57691.9314 E_angle  =      5487.3210 
E_dihed  =      9115.9835 E_impro  =         0.0000 E_vdwl   =     80738.1611 
E_coul   =    857635.2422 E_long   =  -1471610.0875 Press    =       -70.6093
------------ Step          30080 ----- CPU =     5901.808 (sec) -------------
TotEng   =   -316213.2912 KinEng   =    144563.4883 Temp     =       299.5038 
PotEng   =   -460776.7795 E_bond   =     58263.1089 E_angle  =      5387.6205 
E_dihed  =      9109.9309 E_impro  =         0.0000 E_vdwl   =     80813.7781 
E_coul   =    857269.1208 E_long   =  -1471620.3387 Press    =      -126.3732
------------ Step          30085 ----- CPU =     5904.388 (sec) -------------
TotEng   =   -316193.2211 KinEng   =    144468.8165 Temp     =       299.3077 
PotEng   =   -460662.0376 E_bond   =     58047.3753 E_angle  =      5424.7937 
E_dihed  =      9129.1766 E_impro  =         0.0000 E_vdwl   =     80796.7516 
E_coul   =    857557.2297 E_long   =  -1471617.3644 Press    =       -80.3747
------------ Step          30090 ----- CPU =     5907.121 (sec) -------------
TotEng   =   -316177.1657 KinEng   =    144889.6338 Temp     =       300.1795 
PotEng   =   -461066.7995 E_bond   =     57442.7518 E_angle  =      5445.4526 
E_dihed  =      9192.8456 E_impro  =         0.0000 E_vdwl   =     80747.2770 
E_coul   =    857720.4951 E_long   =  -1471615.6217 Press    =       -13.7810
------------ Step          30095 ----- CPU =     5910.723 (sec) -------------
TotEng   =   -316103.9140 KinEng   =    144585.8965 Temp     =       299.5502 
PotEng   =   -460689.8105 E_bond   =     58418.1170 E_angle  =      5518.3090 
E_dihed  =      9202.8189 E_impro  =         0.0000 E_vdwl   =     80667.4070 
E_coul   =    857115.2704 E_long   =  -1471611.7327 Press    =      -110.9027
------------ Step          30100 ----- CPU =     5914.663 (sec) -------------
TotEng   =   -316061.2500 KinEng   =    144949.4840 Temp     =       300.3035 
PotEng   =   -461010.7339 E_bond   =     57905.7672 E_angle  =      5413.9005 
E_dihed  =      9115.1181 E_impro  =         0.0000 E_vdwl   =     80598.2953 
E_coul   =    857570.3021 E_long   =  -1471614.1171 Press    =       -23.9741
------------ Step          30105 ----- CPU =     5917.377 (sec) -------------
TotEng   =   -316116.1443 KinEng   =    145106.1419 Temp     =       300.6281 
PotEng   =   -461222.2862 E_bond   =     57301.6044 E_angle  =      5434.7811 
E_dihed  =      9069.6765 E_impro  =         0.0000 E_vdwl   =     80550.1577 
E_coul   =    858048.6491 E_long   =  -1471627.1549 Press    =       -18.9103
------------ Step          30110 ----- CPU =     5920.279 (sec) -------------
TotEng   =   -316114.2835 KinEng   =    144835.0317 Temp     =       300.0664 
PotEng   =   -460949.3152 E_bond   =     58345.2648 E_angle  =      5442.0963 
E_dihed  =      9090.7780 E_impro  =         0.0000 E_vdwl   =     80510.4869 
E_coul   =    857294.7579 E_long   =  -1471632.6991 Press    =      -109.4302
------------ Step          30115 ----- CPU =     5923.071 (sec) -------------
TotEng   =   -316113.1651 KinEng   =    145145.4212 Temp     =       300.7095 
PotEng   =   -461258.5863 E_bond   =     57949.7223 E_angle  =      5441.3255 
E_dihed  =      9086.8009 E_impro  =         0.0000 E_vdwl   =     80465.6498 
E_coul   =    857427.8027 E_long   =  -1471629.8874 Press    =      -129.0367
------------ Step          30120 ----- CPU =     5924.949 (sec) -------------
TotEng   =   -316142.0028 KinEng   =    145215.1812 Temp     =       300.8540 
PotEng   =   -461357.1840 E_bond   =     57355.6858 E_angle  =      5394.5055 
E_dihed  =      9082.0996 E_impro  =         0.0000 E_vdwl   =     80468.0253 
E_coul   =    857967.2588 E_long   =  -1471624.7589 Press    =       -72.3744
------------ Step          30125 ----- CPU =     5926.721 (sec) -------------
TotEng   =   -316143.6542 KinEng   =    144789.9847 Temp     =       299.9731 
PotEng   =   -460933.6389 E_bond   =     58359.8067 E_angle  =      5305.0953 
E_dihed  =      9106.0802 E_impro  =         0.0000 E_vdwl   =     80495.8760 
E_coul   =    857422.7840 E_long   =  -1471623.2811 Press    =      -169.3805
------------ Step          30130 ----- CPU =     5929.869 (sec) -------------
TotEng   =   -316150.1350 KinEng   =    145174.6235 Temp     =       300.7700 
PotEng   =   -461324.7585 E_bond   =     57885.5497 E_angle  =      5383.6115 
E_dihed  =      9113.7719 E_impro  =         0.0000 E_vdwl   =     80493.5013 
E_coul   =    857409.4102 E_long   =  -1471610.6031 Press    =      -174.0144
------------ Step          30135 ----- CPU =     5932.364 (sec) -------------
TotEng   =   -316222.6562 KinEng   =    145478.7633 Temp     =       301.4001 
PotEng   =   -461701.4195 E_bond   =     57628.3201 E_angle  =      5440.3530 
E_dihed  =      9098.0967 E_impro  =         0.0000 E_vdwl   =     80428.4723 
E_coul   =    857303.6929 E_long   =  -1471600.3544 Press    =      -124.9813
------------ Step          30140 ----- CPU =     5934.243 (sec) -------------
TotEng   =   -316223.6786 KinEng   =    145359.0737 Temp     =       301.1521 
PotEng   =   -461582.7523 E_bond   =     58058.1706 E_angle  =      5442.6161 
E_dihed  =      9086.0984 E_impro  =         0.0000 E_vdwl   =     80452.9158 
E_coul   =    856961.2881 E_long   =  -1471583.8412 Press    =      -207.6580
------------ Step          30145 ----- CPU =     5937.328 (sec) -------------
TotEng   =   -316139.7872 KinEng   =    145259.8961 Temp     =       300.9466 
PotEng   =   -461399.6833 E_bond   =     57904.5075 E_angle  =      5474.1067 
E_dihed  =      9064.5312 E_impro  =         0.0000 E_vdwl   =     80515.5942 
E_coul   =    857233.4012 E_long   =  -1471591.8242 Press    =      -128.9489
------------ Step          30150 ----- CPU =     5939.592 (sec) -------------
TotEng   =   -316126.3848 KinEng   =    144958.6648 Temp     =       300.3225 
PotEng   =   -461085.0496 E_bond   =     57732.8341 E_angle  =      5495.1231 
E_dihed  =      9045.8915 E_impro  =         0.0000 E_vdwl   =     80566.0312 
E_coul   =    857694.6495 E_long   =  -1471619.5790 Press    =      -134.5081
------------ Step          30155 ----- CPU =     5943.017 (sec) -------------
TotEng   =   -316231.7319 KinEng   =    145007.3482 Temp     =       300.4234 
PotEng   =   -461239.0801 E_bond   =     58131.9056 E_angle  =      5398.7804 
E_dihed  =      9041.0134 E_impro  =         0.0000 E_vdwl   =     80546.4752 
E_coul   =    857269.7630 E_long   =  -1471627.0178 Press    =      -152.3414
------------ Step          30160 ----- CPU =     5945.622 (sec) -------------
TotEng   =   -315989.9629 KinEng   =    144847.3352 Temp     =       300.0919 
PotEng   =   -460837.2980 E_bond   =     58141.0250 E_angle  =      5456.0071 
E_dihed  =      9055.0589 E_impro  =         0.0000 E_vdwl   =     80557.3822 
E_coul   =    857574.9086 E_long   =  -1471621.6798 Press    =      -173.0699
------------ Step          30165 ----- CPU =     5947.796 (sec) -------------
TotEng   =   -315814.5680 KinEng   =    144948.9640 Temp     =       300.3024 
PotEng   =   -460763.5320 E_bond   =     57761.7568 E_angle  =      5342.2342 
E_dihed  =      9069.1081 E_impro  =         0.0000 E_vdwl   =     80490.8536 
E_coul   =    858189.5050 E_long   =  -1471616.9897 Press    =       -78.9586
------------ Step          30170 ----- CPU =     5951.285 (sec) -------------
TotEng   =   -315911.2661 KinEng   =    145022.9378 Temp     =       300.4557 
PotEng   =   -460934.2039 E_bond   =     58008.6937 E_angle  =      5435.1444 
E_dihed  =      9079.7714 E_impro  =         0.0000 E_vdwl   =     80399.1126 
E_coul   =    857764.5400 E_long   =  -1471621.4660 Press    =      -119.1682
------------ Step          30175 ----- CPU =     5954.367 (sec) -------------
TotEng   =   -315952.9263 KinEng   =    145058.7694 Temp     =       300.5299 
PotEng   =   -461011.6956 E_bond   =     58168.2131 E_angle  =      5375.2722 
E_dihed  =      9085.2954 E_impro  =         0.0000 E_vdwl   =     80322.9274 
E_coul   =    857644.7156 E_long   =  -1471608.1193 Press    =      -127.1270
------------ Step          30180 ----- CPU =     5956.206 (sec) -------------
TotEng   =   -316046.6702 KinEng   =    145212.9962 Temp     =       300.8495 
PotEng   =   -461259.6664 E_bond   =     57787.5180 E_angle  =      5497.5333 
E_dihed  =      9083.3522 E_impro  =         0.0000 E_vdwl   =     80187.8659 
E_coul   =    857787.1987 E_long   =  -1471603.1347 Press    =       -50.1609
------------ Step          30185 ----- CPU =     5957.967 (sec) -------------
TotEng   =   -315878.3289 KinEng   =    145123.3136 Temp     =       300.6637 
PotEng   =   -461001.6424 E_bond   =     57834.0942 E_angle  =      5544.6302 
E_dihed  =      9057.2332 E_impro  =         0.0000 E_vdwl   =     80158.1270 
E_coul   =    858005.8084 E_long   =  -1471601.5354 Press    =       -71.5698
------------ Step          30190 ----- CPU =     5960.238 (sec) -------------
TotEng   =   -315912.9967 KinEng   =    144748.1332 Temp     =       299.8864 
PotEng   =   -460661.1299 E_bond   =     58112.1219 E_angle  =      5590.1707 
E_dihed  =      9037.6419 E_impro  =         0.0000 E_vdwl   =     80197.9281 
E_coul   =    857994.8172 E_long   =  -1471593.8097 Press    =       -78.8260
------------ Step          30193 ----- CPU =     5961.454 (sec) -------------
TotEng   =   -315855.2623 KinEng   =    144801.8156 Temp     =       299.9976 
PotEng   =   -460657.0778 E_bond   =     57801.2017 E_angle  =      5589.4829 
E_dihed  =      9043.6648 E_impro  =         0.0000 E_vdwl   =     80261.6569 
E_coul   =    858247.9497 E_long   =  -1471601.0338 Press    =      -170.4241
Loop time of 5961.46 on 128 procs for 15000 steps with 161929 atoms

Performance: 0.217 ns/day, 110.397 hours/ns, 2.516 timesteps/s, 407.440 katom-step/s
78.9% CPU use with 8 MPI tasks x 16 OpenMP threads

MPI task timing breakdown:
Section |  min time  |  avg time  |  max time  |%varavg| %total
---------------------------------------------------------------
Pair    | 2808.8     | 3518.6     | 4583.7     | 918.7 | 59.02
Bond    | 54.554     | 69.106     | 86.563     | 142.1 |  1.16
Kspace  | 570.82     | 1630.8     | 2349.2     |1337.4 | 27.36
Neigh   | 373.28     | 377.58     | 382.89     |  17.2 |  6.33
Comm    | 157.77     | 166.13     | 173.06     |  36.1 |  2.79
Output  | 66.445     | 71.567     | 79.599     |  44.7 |  1.20
Modify  | 94.575     | 95.093     | 95.532     |   3.5 |  1.60
Other   |            | 32.52      |            |       |  0.55

Nlocal:        20241.1 ave       25615 max       16672 min
Histogram: 1 2 1 0 2 0 0 1 0 1
Nghost:        34725.6 ave       37066 max       33416 min
Histogram: 1 1 2 1 2 0 0 0 0 1
Neighs:    9.70158e+06 ave 1.31877e+07 max 7.46888e+06 min
Histogram: 1 3 0 0 2 0 1 0 0 1

Total # of neighbors = 77612673
Ave neighs/atom = 479.30064
Ave special neighs/atom = 2.6209388
Neighbor list builds = 1098
Dangerous builds = 0
