LAMMPS (29 Aug 2024)
#test sequence

shell rm vid_out.mp4
WARNING: Shell command 'rm vid_out.mp4' failed with error 'No such file or directory' (src/input.cpp:1288)
shell rmdir img
shell mkdir img

units real
atom_style full


bond_style harmonic
angle_style harmonic
dihedral_style fourier
improper_style none
special_bonds amber
pair_style lj/charmmfsw/coul/long 10.0 12.0
Switching to CHARMM coulomb energy conversion constant (src/KSPACE/pair_lj_charmmfsw_coul_long.cpp:63)
#pair_style lj/charmmfsw/coul/charmmfsh 10.0 12.0
pair_modify mix arithmetic
kspace_style pppm 1.0e-6
kspace_modify mesh 25 25 25
kspace_modify compute no
boundary p p p


thermo 5 #lammps will print thermo data every N steps

neighbor 2.0 bin
neigh_modify delay 5 #neigbor and neigh_modify are performance-critical


timestep 1.0
#with units=real this equals fs, typical length


read_data ../src/converter/noTRV_solvated_data.in
Reading data file ...
  orthogonal box = (-5 -5 -5) to (154.56797 119.50351 158.39491)
  1 by 1 by 1 MPI processor grid
  reading atoms ...
  191140 atoms
  scanning bonds ...
  4 = max bonds/atom
  scanning angles ...
  6 = max angles/atom
  scanning dihedrals ...
  18 = max dihedrals/atom
  orthogonal box = (-5 -5 -5) to (154.56797 119.50351 158.39491)
  1 by 1 by 1 MPI processor grid
  reading bonds ...
  191272 bonds
  reading angles ...
  20543 angles
  reading dihedrals ...
  32326 dihedrals
Finding 1-2 1-3 1-4 neighbors ...
  special bond factors lj:    0        0        0.5     
  special bond factors coul:  0        0        0.8333333333333334
     4 = max # of 1-2 neighbors
     9 = max # of 1-3 neighbors
    19 = max # of 1-4 neighbors
    21 = max # of special neighbors
  special bonds CPU = 0.027 seconds
  read_data CPU = 0.764 seconds
neigh_modify one 5000

thermo_style multi
dump d0 all image 5 ./img/*.jpg type type size 1024 1024 zoom 2.0
dump_modify d0 pad 9


group water molecule 2
179949 atoms in group water
group peptide molecule 1
11191 atoms in group peptide

fix 1 peptide setforce 0.0 0.0 0.0
minimize 0. 0. 300 1000000

CITE-CITE-CITE-CITE-CITE-CITE-CITE-CITE-CITE-CITE-CITE-CITE-CITE

Your simulation uses code contributions which should be cited:

- Type Label Framework: https://doi.org/10.1021/acs.jpcb.3c08419

@Article{Gissinger24,
 author = {Jacob R. Gissinger, Ilia Nikiforov, Yaser Afshar, Brendon Waters, Moon-ki Choi, Daniel S. Karls, Alexander Stukowski, Wonpil Im, Hendrik Heinz, Axel Kohlmeyer, and Ellad B. Tadmor},
 title = {Type Label Framework for Bonded Force Fields in LAMMPS},
 journal = {J. Phys. Chem. B},
 year =    2024,
 volume =  128,
 number =  13,
 pages =   {3282–-3297}
}

CITE-CITE-CITE-CITE-CITE-CITE-CITE-CITE-CITE-CITE-CITE-CITE-CITE

Switching to 'neigh_modify every 1 delay 0 check yes' setting during minimization
PPPM initialization ...
WARNING: System is not charge neutral, net charge = 2 (src/kspace.cpp:327)
  using 12-bit tables for long-range coulomb (src/kspace.cpp:342)
  G vector (1/distance) = 0.1434346
  grid = 25 25 25
  stencil order = 5
  estimated absolute RMS force accuracy = 1.1361018
  estimated relative force accuracy = 0.0034212557
  using double precision FFTW3
  3d grid and FFT values/proc = 27000 15625
Generated 153 of 153 mixed pair_coeff terms from arithmetic mixing rule
Neighbor list info ...
  update: every = 1 steps, delay = 0 steps, check = yes
  max neighbors/atom: 5000, page size: 100000
  master list distance cutoff = 14
  ghost atom cutoff = 14
  binsize = 7, bins = 23 18 24
  1 neighbor lists, perpetual/occasional/extra = 1 0 0
  (1) pair lj/charmmfsw/coul/long, perpetual
      attributes: half, newton on
      pair build: half/bin/newton
      stencil: half/bin/3d
      bin: standard
Per MPI rank memory allocation (min/avg/max) = 595.8 | 595.8 | 595.8 Mbytes
------------ Step              0 ----- CPU =            0 (sec) -------------
TotEng   =   1167143.5756 KinEng   =         0.0000 Temp     =         0.0000 
PotEng   =   1167143.5756 E_bond   =      2134.0802 E_angle  =      5782.7453 
E_dihed  =      8969.3154 E_impro  =         0.0000 E_vdwl   =     65234.6300 
E_coul   =   1085022.8047 E_long   =         0.0000 Press    =      8829.3663
------------ Step              5 ----- CPU =     9.143521 (sec) -------------
TotEng   =   1096305.2019 KinEng   =         0.0000 Temp     =         0.0000 
PotEng   =   1096305.2019 E_bond   =     41323.9793 E_angle  =      5782.7453 
E_dihed  =      8969.3154 E_impro  =         0.0000 E_vdwl   =     61964.4229 
E_coul   =    978264.7390 E_long   =         0.0000 Press    =     -4033.5107
------------ Step             10 ----- CPU =      18.5793 (sec) -------------
TotEng   =   1074569.1880 KinEng   =         0.0000 Temp     =         0.0000 
PotEng   =   1074569.1880 E_bond   =     41441.6382 E_angle  =      5782.7453 
E_dihed  =      8969.3154 E_impro  =         0.0000 E_vdwl   =     63876.8719 
E_coul   =    954498.6172 E_long   =         0.0000 Press    =     -4938.5719
------------ Step             15 ----- CPU =     28.77837 (sec) -------------
TotEng   =   1060163.4611 KinEng   =         0.0000 Temp     =         0.0000 
PotEng   =   1060163.4611 E_bond   =     28362.1795 E_angle  =      5782.7453 
E_dihed  =      8969.3154 E_impro  =         0.0000 E_vdwl   =     66633.6141 
E_coul   =    950415.6068 E_long   =         0.0000 Press    =     -4393.5316
------------ Step             20 ----- CPU =      37.4097 (sec) -------------
TotEng   =   1047268.6551 KinEng   =         0.0000 Temp     =         0.0000 
PotEng   =   1047268.6551 E_bond   =     45912.1318 E_angle  =      5782.7453 
E_dihed  =      8969.3154 E_impro  =         0.0000 E_vdwl   =     70628.9895 
E_coul   =    915975.4731 E_long   =         0.0000 Press    =     -7390.8164
------------ Step             25 ----- CPU =     46.71394 (sec) -------------
TotEng   =   1038046.4245 KinEng   =         0.0000 Temp     =         0.0000 
PotEng   =   1038046.4245 E_bond   =     40555.2669 E_angle  =      5782.7453 
E_dihed  =      8969.3154 E_impro  =         0.0000 E_vdwl   =     74287.8227 
E_coul   =    908451.2743 E_long   =         0.0000 Press    =     -6547.1361
------------ Step             30 ----- CPU =     56.18587 (sec) -------------
TotEng   =   1031271.0062 KinEng   =         0.0000 Temp     =         0.0000 
PotEng   =   1031271.0062 E_bond   =     41877.3901 E_angle  =      5782.7453 
E_dihed  =      8969.3154 E_impro  =         0.0000 E_vdwl   =     78204.8082 
E_coul   =    896436.7471 E_long   =         0.0000 Press    =     -6051.7319
------------ Step             35 ----- CPU =     65.66426 (sec) -------------
TotEng   =   1021277.6540 KinEng   =         0.0000 Temp     =         0.0000 
PotEng   =   1021277.6540 E_bond   =     42927.2588 E_angle  =      5782.7453 
E_dihed  =      8969.3154 E_impro  =         0.0000 E_vdwl   =     85527.2000 
E_coul   =    878071.1345 E_long   =         0.0000 Press    =     -5348.6918
------------ Step             40 ----- CPU =     75.39058 (sec) -------------
TotEng   =   1016290.0927 KinEng   =         0.0000 Temp     =         0.0000 
PotEng   =   1016290.0927 E_bond   =     46409.6846 E_angle  =      5782.7453 
E_dihed  =      8969.3154 E_impro  =         0.0000 E_vdwl   =     88984.2577 
E_coul   =    866144.0898 E_long   =         0.0000 Press    =     -5659.8265
------------ Step             45 ----- CPU =     85.35526 (sec) -------------
TotEng   =   1009480.4963 KinEng   =         0.0000 Temp     =         0.0000 
PotEng   =   1009480.4963 E_bond   =     47738.7896 E_angle  =      5782.7453 
E_dihed  =      8969.3154 E_impro  =         0.0000 E_vdwl   =     96168.3446 
E_coul   =    850821.3014 E_long   =         0.0000 Press    =     -5367.7379
------------ Step             50 ----- CPU =     94.98467 (sec) -------------
TotEng   =   1005745.6632 KinEng   =         0.0000 Temp     =         0.0000 
PotEng   =   1005745.6632 E_bond   =     48214.9568 E_angle  =      5782.7453 
E_dihed  =      8969.3154 E_impro  =         0.0000 E_vdwl   =    100078.3969 
E_coul   =    842700.2488 E_long   =         0.0000 Press    =     -5368.9294
------------ Step             55 ----- CPU =     104.3932 (sec) -------------
TotEng   =   1003653.6485 KinEng   =         0.0000 Temp     =         0.0000 
PotEng   =   1003653.6485 E_bond   =     48981.3699 E_angle  =      5782.7453 
E_dihed  =      8969.3154 E_impro  =         0.0000 E_vdwl   =    102241.3863 
E_coul   =    837678.8316 E_long   =         0.0000 Press    =     -5136.2411
------------ Step             60 ----- CPU =     114.0727 (sec) -------------
TotEng   =   1001406.2750 KinEng   =         0.0000 Temp     =         0.0000 
PotEng   =   1001406.2750 E_bond   =     49645.7368 E_angle  =      5782.7453 
E_dihed  =      8969.3154 E_impro  =         0.0000 E_vdwl   =    104475.8722 
E_coul   =    832532.6053 E_long   =         0.0000 Press    =     -5090.9949
------------ Step             65 ----- CPU =     124.4583 (sec) -------------
TotEng   =    998975.3458 KinEng   =         0.0000 Temp     =         0.0000 
PotEng   =    998975.3458 E_bond   =     49871.4332 E_angle  =      5782.7453 
E_dihed  =      8969.3154 E_impro  =         0.0000 E_vdwl   =    106550.6839 
E_coul   =    827801.1680 E_long   =         0.0000 Press    =     -4934.8470
------------ Step             70 ----- CPU =      134.035 (sec) -------------
TotEng   =    997486.2355 KinEng   =         0.0000 Temp     =         0.0000 
PotEng   =    997486.2355 E_bond   =     50122.6164 E_angle  =      5782.7453 
E_dihed  =      8969.3154 E_impro  =         0.0000 E_vdwl   =    108888.2270 
E_coul   =    823723.3314 E_long   =         0.0000 Press    =     -4742.1692
------------ Step             75 ----- CPU =     145.0353 (sec) -------------
TotEng   =    994182.5650 KinEng   =         0.0000 Temp     =         0.0000 
PotEng   =    994182.5650 E_bond   =     52109.7895 E_angle  =      5782.7453 
E_dihed  =      8969.3154 E_impro  =         0.0000 E_vdwl   =    112975.8412 
E_coul   =    814344.8736 E_long   =         0.0000 Press    =     -4623.6433
------------ Step             80 ----- CPU =     155.6948 (sec) -------------
TotEng   =    993000.7743 KinEng   =         0.0000 Temp     =         0.0000 
PotEng   =    993000.7743 E_bond   =     51603.1217 E_angle  =      5782.7453 
E_dihed  =      8969.3154 E_impro  =         0.0000 E_vdwl   =    113993.1461 
E_coul   =    812652.4458 E_long   =         0.0000 Press    =     -4599.6573
------------ Step             83 ----- CPU =     234.7408 (sec) -------------
TotEng   =    992909.6107 KinEng   =         0.0000 Temp     =         0.0000 
PotEng   =    992909.6107 E_bond   =     51256.9430 E_angle  =      5782.7453 
E_dihed  =      8969.3154 E_impro  =         0.0000 E_vdwl   =    114004.6735 
E_coul   =    812895.9335 E_long   =         0.0000 Press    =     -4316.6438
Loop time of 235.052 on 1 procs for 83 steps with 191140 atoms

97.4% CPU use with 1 MPI tasks x no OpenMP threads

Minimization stats:
  Stopping criterion = linesearch alpha is zero
  Energy initial, next-to-last, final = 
      1167143.57560351   992909.610720144   992909.610720144
  Force two-norm initial, final = 9351.1736 621.47361
  Force max component initial, final = 49.319928 52.385343
  Final line search alpha, max atom move = 2.5928164e-14 1.3582558e-12
  Iterations, force evaluations = 83 219

MPI task timing breakdown:
Section |  min time  |  avg time  |  max time  |%varavg| %total
---------------------------------------------------------------
Pair    | 225.82     | 225.82     | 225.82     |   0.0 | 96.07
Bond    | 0.60614    | 0.60614    | 0.60614    |   0.0 |  0.26
Kspace  | 0          | 0          | 0          |   0.0 |  0.00
Neigh   | 2.5069     | 2.5069     | 2.5069     |   0.0 |  1.07
Comm    | 0.047951   | 0.047951   | 0.047951   |   0.0 |  0.02
Output  | 5.1074     | 5.1074     | 5.1074     |   0.0 |  2.17
Modify  | 0.03397    | 0.03397    | 0.03397    |   0.0 |  0.01
Other   |            | 0.9314     |            |       |  0.40

Nlocal:         191140 ave      191140 max      191140 min
Histogram: 1 0 0 0 0 0 0 0 0 0
Nghost:          36548 ave       36548 max       36548 min
Histogram: 1 0 0 0 0 0 0 0 0 0
Neighs:    9.21015e+07 ave 9.21015e+07 max 9.21015e+07 min
Histogram: 1 0 0 0 0 0 0 0 0 0

Total # of neighbors = 92101469
Ave neighs/atom = 481.85345
Ave special neighs/atom = 2.5260437
Neighbor list builds = 2
Dangerous builds = 0


dump_modify d0 boxcolor blue
dump_modify d0 every 50
kspace_modify compute yes

fix 2 water box/relax aniso -1000 dilate partial
fix 3 all nvt temp 300.0 300.0 100.0
run 15000
PPPM initialization ...
  using 12-bit tables for long-range coulomb (src/kspace.cpp:342)
  G vector (1/distance) = 0.1434346
  grid = 25 25 25
  stencil order = 5
  estimated absolute RMS force accuracy = 1.1361018
  estimated relative force accuracy = 0.0034212557
  using double precision FFTW3
  3d grid and FFT values/proc = 27000 15625
Generated 153 of 153 mixed pair_coeff terms from arithmetic mixing rule
Per MPI rank memory allocation (min/avg/max) = 592.1 | 592.1 | 592.1 Mbytes
------------ Step             83 ----- CPU =            0 (sec) -------------
TotEng   =   -720015.7887 KinEng   =         0.0000 Temp     =         0.0000 
PotEng   =   -720015.7887 E_bond   =     51256.9430 E_angle  =      5782.7453 
E_dihed  =      8969.3154 E_impro  =         0.0000 E_vdwl   =    114004.6735 
E_coul   =    812895.9335 E_long   =  -1712925.3994 Press    =     -4317.3779 
Volume   =   3246129.5854
------------ Step             85 ----- CPU =     1.795174 (sec) -------------
TotEng   =   -719982.0148 KinEng   =       120.9087 Temp     =         0.2122 
PotEng   =   -720102.9234 E_bond   =     51725.1460 E_angle  =      5782.7453 
E_dihed  =      8969.3154 E_impro  =         0.0000 E_vdwl   =    114003.2205 
E_coul   =    812431.9945 E_long   =  -1713015.3451 Press    =     -4823.9899 
Volume   =   3246129.5854
------------ Step             90 ----- CPU =     6.082826 (sec) -------------
TotEng   =   -719849.1036 KinEng   =       610.8725 Temp     =         1.0722 
PotEng   =   -720459.9761 E_bond   =     52077.1562 E_angle  =      5782.7453 
E_dihed  =      8969.3154 E_impro  =         0.0000 E_vdwl   =    114001.8752 
E_coul   =    812247.6020 E_long   =  -1713538.6702 Press    =     -4752.8695 
Volume   =   3246129.5854
------------ Step             95 ----- CPU =     10.06319 (sec) -------------
TotEng   =   -719779.9395 KinEng   =      1051.4282 Temp     =         1.8454 
PotEng   =   -720831.3677 E_bond   =     51849.4281 E_angle  =      5782.7453 
E_dihed  =      8969.3154 E_impro  =         0.0000 E_vdwl   =    114029.6215 
E_coul   =    812516.1090 E_long   =  -1713978.5871 Press    =     -4629.9801 
Volume   =   3246129.5854
------------ Step            100 ----- CPU =     14.04359 (sec) -------------
TotEng   =   -719656.6212 KinEng   =      1137.7205 Temp     =         1.9969 
PotEng   =   -720794.3417 E_bond   =     51675.0521 E_angle  =      5782.7453 
E_dihed  =      8969.3154 E_impro  =         0.0000 E_vdwl   =    114124.2790 
E_coul   =    812955.2677 E_long   =  -1714301.0012 Press    =     -4497.6579 
Volume   =   3246129.5854
------------ Step            105 ----- CPU =     18.36758 (sec) -------------
TotEng   =   -719456.0174 KinEng   =      1427.8037 Temp     =         2.5060 
PotEng   =   -720883.8210 E_bond   =     51867.2694 E_angle  =      5782.7453 
E_dihed  =      8969.3154 E_impro  =         0.0000 E_vdwl   =    114303.8693 
E_coul   =    812720.2156 E_long   =  -1714527.2360 Press    =     -4390.7391 
Volume   =   3246129.5854
------------ Step            110 ----- CPU =     22.36326 (sec) -------------
TotEng   =   -719308.0669 KinEng   =      2022.6155 Temp     =         3.5500 
PotEng   =   -721330.6825 E_bond   =     51777.9387 E_angle  =      5782.7453 
E_dihed  =      8969.3154 E_impro  =         0.0000 E_vdwl   =    114596.7613 
E_coul   =    811936.3965 E_long   =  -1714393.8396 Press    =     -4309.0912 
Volume   =   3246129.5854
------------ Step            115 ----- CPU =      26.4711 (sec) -------------
TotEng   =   -719116.5298 KinEng   =      2426.1721 Temp     =         4.2583 
PotEng   =   -721542.7019 E_bond   =     51922.3881 E_angle  =      5782.7453 
E_dihed  =      8969.3154 E_impro  =         0.0000 E_vdwl   =    114983.9093 
E_coul   =    810992.0966 E_long   =  -1714193.1566 Press    =     -4267.6871 
Volume   =   3246129.5854
------------ Step            120 ----- CPU =     30.55128 (sec) -------------
TotEng   =   -719066.8162 KinEng   =      2778.3635 Temp     =         4.8765 
PotEng   =   -721845.1797 E_bond   =     52078.4658 E_angle  =      5782.7453 
E_dihed  =      8969.3154 E_impro  =         0.0000 E_vdwl   =    115444.6055 
E_coul   =    809984.2527 E_long   =  -1714104.5643 Press    =     -4266.2797 
Volume   =   3246129.5854
------------ Step            125 ----- CPU =     35.77967 (sec) -------------
TotEng   =   -718814.5446 KinEng   =      3382.3760 Temp     =         5.9366 
PotEng   =   -722196.9206 E_bond   =     52050.9307 E_angle  =      5782.7453 
E_dihed  =      8969.3154 E_impro  =         0.0000 E_vdwl   =    115964.5195 
E_coul   =    809078.1159 E_long   =  -1714042.5475 Press    =     -4287.1293 
Volume   =   3246129.5854
------------ Step            130 ----- CPU =     39.80027 (sec) -------------
TotEng   =   -718540.5472 KinEng   =      3981.3788 Temp     =         6.9880 
PotEng   =   -722521.9260 E_bond   =     52454.2776 E_angle  =      5782.7453 
E_dihed  =      8969.3154 E_impro  =         0.0000 E_vdwl   =    116550.0512 
E_coul   =    807926.5836 E_long   =  -1714204.8991 Press    =     -4362.9277 
Volume   =   3246129.5854
------------ Step            135 ----- CPU =       43.838 (sec) -------------
TotEng   =   -718404.8763 KinEng   =      4501.0933 Temp     =         7.9001 
PotEng   =   -722905.9697 E_bond   =     52687.5711 E_angle  =      5782.7453 
E_dihed  =      8969.3154 E_impro  =         0.0000 E_vdwl   =    117218.6909 
E_coul   =    806891.4428 E_long   =  -1714455.7351 Press    =     -4432.4780 
Volume   =   3246129.5854
------------ Step            140 ----- CPU =     47.82372 (sec) -------------
TotEng   =   -718091.2325 KinEng   =      5174.2492 Temp     =         9.0816 
PotEng   =   -723265.4817 E_bond   =     52717.3149 E_angle  =      5782.7453 
E_dihed  =      8969.3154 E_impro  =         0.0000 E_vdwl   =    117981.6720 
E_coul   =    805816.5181 E_long   =  -1714533.0474 Press    =     -4468.2420 
Volume   =   3246129.5854
------------ Step            145 ----- CPU =     51.99398 (sec) -------------
TotEng   =   -717976.8526 KinEng   =      5946.4632 Temp     =        10.4370 
PotEng   =   -723923.3157 E_bond   =     53178.0672 E_angle  =      5782.7453 
E_dihed  =      8969.3154 E_impro  =         0.0000 E_vdwl   =    118859.2175 
E_coul   =    803789.9238 E_long   =  -1714502.5849 Press    =     -4528.4151 
Volume   =   3246129.5854
------------ Step            150 ----- CPU =     57.35405 (sec) -------------
TotEng   =   -717883.3346 KinEng   =      6668.7436 Temp     =        11.7047 
PotEng   =   -724552.0783 E_bond   =     53547.5581 E_angle  =      5782.7453 
E_dihed  =      8969.3154 E_impro  =         0.0000 E_vdwl   =    119824.5551 
E_coul   =    801821.0519 E_long   =  -1714497.3041 Press    =     -4526.1483 
Volume   =   3246129.5854
------------ Step            155 ----- CPU =     61.71675 (sec) -------------
TotEng   =   -717830.4140 KinEng   =      7416.8957 Temp     =        13.0178 
PotEng   =   -725247.3097 E_bond   =     53349.2595 E_angle  =      5782.7453 
E_dihed  =      8969.3154 E_impro  =         0.0000 E_vdwl   =    120876.7366 
E_coul   =    800092.1144 E_long   =  -1714317.4809 Press    =     -4441.1879 
Volume   =   3246129.5854
------------ Step            160 ----- CPU =     65.71894 (sec) -------------
TotEng   =   -717658.6214 KinEng   =      8253.5001 Temp     =        14.4862 
PotEng   =   -725912.1215 E_bond   =     53808.9501 E_angle  =      5782.7453 
E_dihed  =      8969.3154 E_impro  =         0.0000 E_vdwl   =    121987.3109 
E_coul   =    797810.2518 E_long   =  -1714270.6949 Press    =     -4354.8749 
Volume   =   3246129.5854
------------ Step            165 ----- CPU =     69.73322 (sec) -------------
TotEng   =   -717370.7741 KinEng   =      9081.0111 Temp     =        15.9386 
PotEng   =   -726451.7852 E_bond   =     54116.0550 E_angle  =      5782.7453 
E_dihed  =      8969.3154 E_impro  =         0.0000 E_vdwl   =    123149.5898 
E_coul   =    795930.6212 E_long   =  -1714400.1119 Press    =     -4201.0512 
Volume   =   3246129.5854
------------ Step            170 ----- CPU =     75.04177 (sec) -------------
TotEng   =   -717088.6139 KinEng   =      9850.2754 Temp     =        17.2888 
PotEng   =   -726938.8893 E_bond   =     53807.1037 E_angle  =      5782.7453 
E_dihed  =      8969.3154 E_impro  =         0.0000 E_vdwl   =    124373.8395 
E_coul   =    794558.2642 E_long   =  -1714430.1575 Press    =     -3969.5789 
Volume   =   3246129.5854
------------ Step            175 ----- CPU =     79.07344 (sec) -------------
TotEng   =   -716816.2484 KinEng   =     10638.6870 Temp     =        18.6726 
PotEng   =   -727454.9354 E_bond   =     54239.4508 E_angle  =      5782.7453 
E_dihed  =      8969.3154 E_impro  =         0.0000 E_vdwl   =    125647.4030 
E_coul   =    792394.3386 E_long   =  -1714488.1884 Press    =     -3780.8474 
Volume   =   3246129.5854
------------ Step            180 ----- CPU =     83.09307 (sec) -------------
TotEng   =   -716670.0238 KinEng   =     11451.2980 Temp     =        20.0988 
PotEng   =   -728121.3218 E_bond   =     54492.8447 E_angle  =      5782.7453 
E_dihed  =      8969.3154 E_impro  =         0.0000 E_vdwl   =    126967.7131 
E_coul   =    790176.0493 E_long   =  -1714509.9896 Press    =     -3593.2313 
Volume   =   3246129.5854
------------ Step            185 ----- CPU =     87.14896 (sec) -------------
TotEng   =   -716599.2902 KinEng   =     12214.0474 Temp     =        21.4376 
PotEng   =   -728813.3375 E_bond   =     54373.3667 E_angle  =      5782.7453 
E_dihed  =      8969.3154 E_impro  =         0.0000 E_vdwl   =    128287.3377 
E_coul   =    788189.1686 E_long   =  -1714415.2712 Press    =     -3395.7962 
Volume   =   3246129.5854
------------ Step            190 ----- CPU =     91.21855 (sec) -------------
TotEng   =   -716620.0601 KinEng   =     12963.0223 Temp     =        22.7522 
PotEng   =   -729583.0824 E_bond   =     54715.1871 E_angle  =      5782.7453 
E_dihed  =      8969.3154 E_impro  =         0.0000 E_vdwl   =    129590.8417 
E_coul   =    785666.4401 E_long   =  -1714307.6121 Press    =     -3289.6354 
Volume   =   3246129.5854
------------ Step            195 ----- CPU =     97.27658 (sec) -------------
TotEng   =   -716463.0693 KinEng   =     13773.6154 Temp     =        24.1749 
PotEng   =   -730236.6846 E_bond   =     55137.4719 E_angle  =      5782.7453 
E_dihed  =      8969.3154 E_impro  =         0.0000 E_vdwl   =    130860.9299 
E_coul   =    783365.6630 E_long   =  -1714352.8101 Press    =     -3224.4571 
Volume   =   3246129.5854
------------ Step            200 ----- CPU =     101.3133 (sec) -------------
TotEng   =   -716284.0784 KinEng   =     14554.0313 Temp     =        25.5446 
PotEng   =   -730838.1098 E_bond   =     55093.7155 E_angle  =      5782.7453 
E_dihed  =      8969.3154 E_impro  =         0.0000 E_vdwl   =    132126.7997 
E_coul   =    781548.1058 E_long   =  -1714358.7914 Press    =     -3164.6539 
Volume   =   3246129.5854
------------ Step            205 ----- CPU =     105.8211 (sec) -------------
TotEng   =   -716149.6214 KinEng   =     15232.8152 Temp     =        26.7360 
PotEng   =   -731382.4365 E_bond   =     55503.2265 E_angle  =      5782.7453 
E_dihed  =      8969.3154 E_impro  =         0.0000 E_vdwl   =    133425.5468 
E_coul   =    779358.8358 E_long   =  -1714422.1063 Press    =     -3181.5253 
Volume   =   3246129.5854
------------ Step            210 ----- CPU =     109.9749 (sec) -------------
TotEng   =   -715952.6170 KinEng   =     15897.8611 Temp     =        27.9033 
PotEng   =   -731850.4781 E_bond   =     55970.2268 E_angle  =      5782.7453 
E_dihed  =      8969.3154 E_impro  =         0.0000 E_vdwl   =    134768.3646 
E_coul   =    777186.4079 E_long   =  -1714527.5381 Press    =     -3215.8022 
Volume   =   3246129.5854
------------ Step            215 ----- CPU =     115.2664 (sec) -------------
TotEng   =   -715661.8547 KinEng   =     16551.5283 Temp     =        29.0506 
PotEng   =   -732213.3830 E_bond   =     55936.0427 E_angle  =      5782.7453 
E_dihed  =      8969.3154 E_impro  =         0.0000 E_vdwl   =    136144.8897 
E_coul   =    775434.1110 E_long   =  -1714480.4870 Press    =     -3211.4759 
Volume   =   3246129.5854
------------ Step            220 ----- CPU =     119.3883 (sec) -------------
TotEng   =   -715625.8603 KinEng   =     17120.1513 Temp     =        30.0486 
PotEng   =   -732746.0116 E_bond   =     56458.7785 E_angle  =      5782.7453 
E_dihed  =      8969.3154 E_impro  =         0.0000 E_vdwl   =    137486.9119 
E_coul   =    773007.8093 E_long   =  -1714451.5719 Press    =     -3250.0302 
Volume   =   3246129.5854
------------ Step            225 ----- CPU =     123.8577 (sec) -------------
TotEng   =   -715666.7548 KinEng   =     17660.4324 Temp     =        30.9969 
PotEng   =   -733327.1872 E_bond   =     56760.7234 E_angle  =      5782.7453 
E_dihed  =      8969.3154 E_impro  =         0.0000 E_vdwl   =    138792.5106 
E_coul   =    770798.6515 E_long   =  -1714431.1335 Press    =     -3258.6379 
Volume   =   3246129.5854
------------ Step            230 ----- CPU =     129.1637 (sec) -------------
TotEng   =   -715542.8942 KinEng   =     18204.7877 Temp     =        31.9523 
PotEng   =   -733747.6819 E_bond   =     56816.2698 E_angle  =      5782.7453 
E_dihed  =      8969.3154 E_impro  =         0.0000 E_vdwl   =    140050.4414 
E_coul   =    769049.5879 E_long   =  -1714416.0416 Press    =     -3192.5581 
Volume   =   3246129.5854
------------ Step            235 ----- CPU =     133.4057 (sec) -------------
TotEng   =   -715388.7652 KinEng   =     18659.8576 Temp     =        32.7510 
PotEng   =   -734048.6228 E_bond   =     57195.9602 E_angle  =      5782.7453 
E_dihed  =      8969.3154 E_impro  =         0.0000 E_vdwl   =    141273.3517 
E_coul   =    767192.9065 E_long   =  -1714462.9018 Press    =     -3109.8678 
Volume   =   3246129.5854
------------ Step            240 ----- CPU =     137.5178 (sec) -------------
TotEng   =   -715133.9962 KinEng   =     19041.6958 Temp     =        33.4212 
PotEng   =   -734175.6920 E_bond   =     57409.2108 E_angle  =      5782.7453 
E_dihed  =      8969.3154 E_impro  =         0.0000 E_vdwl   =    142459.1074 
E_coul   =    765761.1585 E_long   =  -1714557.2292 Press    =     -2970.0296 
Volume   =   3246129.5854
------------ Step            245 ----- CPU =     141.8645 (sec) -------------
TotEng   =   -714985.1303 KinEng   =     19466.2737 Temp     =        34.1664 
PotEng   =   -734451.4040 E_bond   =     57324.6361 E_angle  =      5782.7453 
E_dihed  =      8969.3154 E_impro  =         0.0000 E_vdwl   =    143573.5126 
E_coul   =    764483.3199 E_long   =  -1714584.9332 Press    =     -2773.2860 
Volume   =   3246129.5854
------------ Step            250 ----- CPU =     147.2497 (sec) -------------
TotEng   =   -714785.1885 KinEng   =     19935.8047 Temp     =        34.9905 
PotEng   =   -734720.9932 E_bond   =     57473.1909 E_angle  =      5782.7453 
E_dihed  =      8969.3154 E_impro  =         0.0000 E_vdwl   =    144589.2195 
E_coul   =    763031.4713 E_long   =  -1714566.9355 Press    =     -2586.4478 
Volume   =   3246129.5854
------------ Step            255 ----- CPU =     151.7613 (sec) -------------
TotEng   =   -714283.8692 KinEng   =     20352.5244 Temp     =        35.7219 
PotEng   =   -734636.3936 E_bond   =     57654.4832 E_angle  =      5782.7453 
E_dihed  =      8969.3154 E_impro  =         0.0000 E_vdwl   =    145507.1154 
E_coul   =    762017.2912 E_long   =  -1714567.3440 Press    =     -2388.3077 
Volume   =   3246129.5854
------------ Step            260 ----- CPU =     155.9981 (sec) -------------
TotEng   =   -713976.7605 KinEng   =     20747.5221 Temp     =        36.4152 
PotEng   =   -734724.2826 E_bond   =     57380.0382 E_angle  =      5782.7453 
E_dihed  =      8969.3154 E_impro  =         0.0000 E_vdwl   =    146354.4482 
E_coul   =    761276.3067 E_long   =  -1714487.1364 Press    =     -2189.1493 
Volume   =   3246129.5854
------------ Step            265 ----- CPU =     160.0656 (sec) -------------
TotEng   =   -713584.3745 KinEng   =     21178.3077 Temp     =        37.1713 
PotEng   =   -734762.6822 E_bond   =     57634.5479 E_angle  =      5782.7453 
E_dihed  =      8969.3154 E_impro  =         0.0000 E_vdwl   =    147103.1955 
E_coul   =    760246.7644 E_long   =  -1714499.2507 Press    =     -2063.5792 
Volume   =   3246129.5854
------------ Step            270 ----- CPU =     165.4394 (sec) -------------
TotEng   =   -713246.7981 KinEng   =     21569.5995 Temp     =        37.8581 
PotEng   =   -734816.3976 E_bond   =     57846.7104 E_angle  =      5782.7453 
E_dihed  =      8969.3154 E_impro  =         0.0000 E_vdwl   =    147780.7017 
E_coul   =    759349.9171 E_long   =  -1714545.7875 Press    =     -1992.7753 
Volume   =   3246129.5854
------------ Step            275 ----- CPU =     169.7295 (sec) -------------
TotEng   =   -713051.9851 KinEng   =     21889.7564 Temp     =        38.4200 
PotEng   =   -734941.7415 E_bond   =     57740.0423 E_angle  =      5782.7453 
E_dihed  =      8969.3154 E_impro  =         0.0000 E_vdwl   =    148426.2735 
E_coul   =    758715.0189 E_long   =  -1714575.1369 Press    =     -1946.9670 
Volume   =   3246129.5854
------------ Step            280 ----- CPU =     174.0294 (sec) -------------
TotEng   =   -712841.7109 KinEng   =     22186.8831 Temp     =        38.9415 
PotEng   =   -735028.5940 E_bond   =     58034.8293 E_angle  =      5782.7453 
E_dihed  =      8969.3154 E_impro  =         0.0000 E_vdwl   =    149073.1635 
E_coul   =    757723.7407 E_long   =  -1714612.3882 Press    =     -1970.2183 
Volume   =   3246129.5854
------------ Step            285 ----- CPU =     178.2561 (sec) -------------
TotEng   =   -712519.9290 KinEng   =     22454.0874 Temp     =        39.4105 
PotEng   =   -734974.0164 E_bond   =     58289.7485 E_angle  =      5782.7453 
E_dihed  =      8969.3154 E_impro  =         0.0000 E_vdwl   =    149747.4501 
E_coul   =    756854.0936 E_long   =  -1714617.3692 Press    =     -2023.1503 
Volume   =   3246129.5854
------------ Step            290 ----- CPU =      183.903 (sec) -------------
TotEng   =   -712078.8395 KinEng   =     22660.8219 Temp     =        39.7733 
PotEng   =   -734739.6614 E_bond   =     58347.7582 E_angle  =      5782.7453 
E_dihed  =      8969.3154 E_impro  =         0.0000 E_vdwl   =    150404.5933 
E_coul   =    756350.5490 E_long   =  -1714594.6226 Press    =     -2060.5514 
Volume   =   3246129.5854
------------ Step            295 ----- CPU =     188.0928 (sec) -------------
TotEng   =   -711812.9909 KinEng   =     22824.6184 Temp     =        40.0608 
PotEng   =   -734637.6093 E_bond   =     58518.8570 E_angle  =      5782.7453 
E_dihed  =      8969.3154 E_impro  =         0.0000 E_vdwl   =    151031.2042 
E_coul   =    755624.3932 E_long   =  -1714564.1244 Press    =     -2121.7222 
Volume   =   3246129.5854
------------ Step            300 ----- CPU =     192.2103 (sec) -------------
TotEng   =   -711458.2817 KinEng   =     22983.1812 Temp     =        40.3391 
PotEng   =   -734441.4630 E_bond   =     58859.1814 E_angle  =      5782.7453 
E_dihed  =      8969.3154 E_impro  =         0.0000 E_vdwl   =    151623.7179 
E_coul   =    754919.0890 E_long   =  -1714595.5120 Press    =     -2174.2120 
Volume   =   3246129.5854
------------ Step            305 ----- CPU =     198.0658 (sec) -------------
TotEng   =   -711087.0197 KinEng   =     23115.3756 Temp     =        40.5712 
PotEng   =   -734202.3953 E_bond   =     58853.6225 E_angle  =      5782.7453 
E_dihed  =      8969.3154 E_impro  =         0.0000 E_vdwl   =    152195.2945 
E_coul   =    754599.6250 E_long   =  -1714602.9979 Press    =     -2167.1952 
Volume   =   3246129.5854
------------ Step            310 ----- CPU =     202.3919 (sec) -------------
TotEng   =   -710560.1594 KinEng   =     23211.3193 Temp     =        40.7395 
PotEng   =   -733771.4787 E_bond   =     58993.3560 E_angle  =      5782.7453 
E_dihed  =      8969.3154 E_impro  =         0.0000 E_vdwl   =    152740.5431 
E_coul   =    754383.4301 E_long   =  -1714640.8687 Press    =     -2116.0608 
Volume   =   3246129.5854
------------ Step            315 ----- CPU =     206.5835 (sec) -------------
TotEng   =   -710087.6450 KinEng   =     23312.7557 Temp     =        40.9176 
PotEng   =   -733400.4007 E_bond   =     59182.3429 E_angle  =      5782.7453 
E_dihed  =      8969.3154 E_impro  =         0.0000 E_vdwl   =    153261.3110 
E_coul   =    754069.7491 E_long   =  -1714665.8643 Press    =     -2030.3945 
Volume   =   3246129.5854
------------ Step            320 ----- CPU =     212.0767 (sec) -------------
TotEng   =   -709492.3106 KinEng   =     23444.3340 Temp     =        41.1485 
PotEng   =   -732936.6446 E_bond   =     59057.9922 E_angle  =      5782.7453 
E_dihed  =      8969.3154 E_impro  =         0.0000 E_vdwl   =    153750.8865 
E_coul   =    754146.6259 E_long   =  -1714644.2099 Press    =     -1875.8880 
Volume   =   3246129.5854
------------ Step            325 ----- CPU =     216.2466 (sec) -------------
TotEng   =   -708929.3875 KinEng   =     23583.8586 Temp     =        41.3934 
PotEng   =   -732513.2461 E_bond   =     59105.6702 E_angle  =      5782.7453 
E_dihed  =      8969.3154 E_impro  =         0.0000 E_vdwl   =    154196.5918 
E_coul   =    754073.8233 E_long   =  -1714641.3921 Press    =     -1702.1646 
Volume   =   3246129.5854
------------ Step            330 ----- CPU =      220.476 (sec) -------------
TotEng   =   -708460.5682 KinEng   =     23728.4137 Temp     =        41.6471 
PotEng   =   -732188.9819 E_bond   =     59088.3243 E_angle  =      5782.7453 
E_dihed  =      8969.3154 E_impro  =         0.0000 E_vdwl   =    154631.0725 
E_coul   =    753963.2530 E_long   =  -1714623.6924 Press    =     -1529.1694 
Volume   =   3246129.5854
------------ Step            335 ----- CPU =     225.9012 (sec) -------------
TotEng   =   -708024.8163 KinEng   =     23899.0927 Temp     =        41.9467 
PotEng   =   -731923.9090 E_bond   =     59063.3797 E_angle  =      5782.7453 
E_dihed  =      8969.3154 E_impro  =         0.0000 E_vdwl   =    155031.1250 
E_coul   =    753874.8633 E_long   =  -1714645.3376 Press    =     -1361.2292 
Volume   =   3246129.5854
------------ Step            340 ----- CPU =      230.339 (sec) -------------
TotEng   =   -707563.4106 KinEng   =     24072.6639 Temp     =        42.2513 
PotEng   =   -731636.0746 E_bond   =     59045.4780 E_angle  =      5782.7453 
E_dihed  =      8969.3154 E_impro  =         0.0000 E_vdwl   =    155401.8385 
E_coul   =    753834.0441 E_long   =  -1714669.4959 Press    =     -1219.8758 
Volume   =   3246129.5854
------------ Step            345 ----- CPU =     234.6109 (sec) -------------
TotEng   =   -707049.7045 KinEng   =     24209.8760 Temp     =        42.4922 
PotEng   =   -731259.5805 E_bond   =     59150.6614 E_angle  =      5782.7453 
E_dihed  =      8969.3154 E_impro  =         0.0000 E_vdwl   =    155754.3996 
E_coul   =    753785.9320 E_long   =  -1714702.6342 Press    =     -1126.5067 
Volume   =   3246129.5854
------------ Step            350 ----- CPU =      238.861 (sec) -------------
TotEng   =   -706614.7532 KinEng   =     24338.7417 Temp     =        42.7184 
PotEng   =   -730953.4949 E_bond   =     59188.9256 E_angle  =      5782.7453 
E_dihed  =      8969.3154 E_impro  =         0.0000 E_vdwl   =    156086.4309 
E_coul   =    753724.9033 E_long   =  -1714705.8155 Press    =     -1076.7201 
Volume   =   3246129.5854
------------ Step            355 ----- CPU =     243.6078 (sec) -------------
TotEng   =   -706298.1024 KinEng   =     24509.0028 Temp     =        43.0172 
PotEng   =   -730807.1051 E_bond   =     59219.9495 E_angle  =      5782.7453 
E_dihed  =      8969.3154 E_impro  =         0.0000 E_vdwl   =    156398.9228 
E_coul   =    753515.3689 E_long   =  -1714693.4070 Press    =     -1077.9249 
Volume   =   3246129.5854
------------ Step            360 ----- CPU =     249.1848 (sec) -------------
TotEng   =   -705904.9673 KinEng   =     24698.6438 Temp     =        43.3500 
PotEng   =   -730603.6112 E_bond   =     59450.7678 E_angle  =      5782.7453 
E_dihed  =      8969.3154 E_impro  =         0.0000 E_vdwl   =    156691.9302 
E_coul   =    753184.7468 E_long   =  -1714683.1166 Press    =     -1130.1831 
Volume   =   3246129.5854
------------ Step            365 ----- CPU =     253.3958 (sec) -------------
TotEng   =   -705566.1106 KinEng   =     24894.9770 Temp     =        43.6946 
PotEng   =   -730461.0876 E_bond   =     59537.9458 E_angle  =      5782.7453 
E_dihed  =      8969.3154 E_impro  =         0.0000 E_vdwl   =    156964.6228 
E_coul   =    752947.3311 E_long   =  -1714663.0480 Press    =     -1206.7667 
Volume   =   3246129.5854
------------ Step            370 ----- CPU =     257.6717 (sec) -------------
TotEng   =   -705352.1425 KinEng   =     25113.9220 Temp     =        44.0789 
PotEng   =   -730466.0645 E_bond   =     59724.1056 E_angle  =      5782.7453 
E_dihed  =      8969.3154 E_impro  =         0.0000 E_vdwl   =    157205.2349 
E_coul   =    752546.4764 E_long   =  -1714693.9421 Press    =     -1300.6973 
Volume   =   3246129.5854
------------ Step            375 ----- CPU =     263.2516 (sec) -------------
TotEng   =   -704951.2845 KinEng   =     25337.8048 Temp     =        44.4719 
PotEng   =   -730289.0893 E_bond   =     59925.5825 E_angle  =      5782.7453 
E_dihed  =      8969.3154 E_impro  =         0.0000 E_vdwl   =    157449.1001 
E_coul   =    752293.5931 E_long   =  -1714709.4257 Press    =     -1384.6490 
Volume   =   3246129.5854
------------ Step            380 ----- CPU =     267.5907 (sec) -------------
TotEng   =   -704661.5211 KinEng   =     25551.4502 Temp     =        44.8468 
PotEng   =   -730212.9714 E_bond   =     60137.1497 E_angle  =      5782.7453 
E_dihed  =      8969.3154 E_impro  =         0.0000 E_vdwl   =    157696.1040 
E_coul   =    751934.8340 E_long   =  -1714733.1198 Press    =     -1446.4168 
Volume   =   3246129.5854
------------ Step            385 ----- CPU =     271.7589 (sec) -------------
TotEng   =   -704552.1210 KinEng   =     25782.0429 Temp     =        45.2516 
PotEng   =   -730334.1639 E_bond   =     60174.8225 E_angle  =      5782.7453 
E_dihed  =      8969.3154 E_impro  =         0.0000 E_vdwl   =    157960.6905 
E_coul   =    751509.6492 E_long   =  -1714731.3868 Press    =     -1461.9063 
Volume   =   3246129.5854
------------ Step            390 ----- CPU =     277.3778 (sec) -------------
TotEng   =   -704465.2254 KinEng   =     26052.9990 Temp     =        45.7271 
PotEng   =   -730518.2244 E_bond   =     60196.6314 E_angle  =      5782.7453 
E_dihed  =      8969.3154 E_impro  =         0.0000 E_vdwl   =    158275.0704 
E_coul   =    750967.1782 E_long   =  -1714709.1651 Press    =     -1432.8811 
Volume   =   3246129.5854
------------ Step            395 ----- CPU =     281.6401 (sec) -------------
TotEng   =   -704454.5213 KinEng   =     26316.1402 Temp     =        46.1890 
PotEng   =   -730770.6615 E_bond   =     60296.7935 E_angle  =      5782.7453 
E_dihed  =      8969.3154 E_impro  =         0.0000 E_vdwl   =    158633.6957 
E_coul   =    750239.2427 E_long   =  -1714692.4540 Press    =     -1361.7311 
Volume   =   3246129.5854
------------ Step            400 ----- CPU =     287.3091 (sec) -------------
TotEng   =   -704408.5673 KinEng   =     26522.3342 Temp     =        46.5509 
PotEng   =   -730930.9015 E_bond   =     60097.3054 E_angle  =      5782.7453 
E_dihed  =      8969.3154 E_impro  =         0.0000 E_vdwl   =    159033.6763 
E_coul   =    749859.5878 E_long   =  -1714673.5317 Press    =     -1228.0369 
Volume   =   3246129.5854
------------ Step            405 ----- CPU =     292.0204 (sec) -------------
TotEng   =   -704363.2811 KinEng   =     26708.0713 Temp     =        46.8769 
PotEng   =   -731071.3524 E_bond   =     60056.2240 E_angle  =      5782.7453 
E_dihed  =      8969.3154 E_impro  =         0.0000 E_vdwl   =    159437.9611 
E_coul   =    749373.5667 E_long   =  -1714691.1649 Press    =     -1081.5862 
Volume   =   3246129.5854
------------ Step            410 ----- CPU =     296.1738 (sec) -------------
TotEng   =   -704231.5392 KinEng   =     26926.5732 Temp     =        47.2604 
PotEng   =   -731158.1124 E_bond   =     60064.4006 E_angle  =      5782.7453 
E_dihed  =      8969.3154 E_impro  =         0.0000 E_vdwl   =    159813.8005 
E_coul   =    748920.2784 E_long   =  -1714708.6526 Press    =      -937.9670 
Volume   =   3246129.5854
------------ Step            415 ----- CPU =     300.3575 (sec) -------------
TotEng   =   -703990.7893 KinEng   =     27191.4511 Temp     =        47.7253 
PotEng   =   -731182.2404 E_bond   =     59983.8767 E_angle  =      5782.7453 
E_dihed  =      8969.3154 E_impro  =         0.0000 E_vdwl   =    160124.2387 
E_coul   =    748697.1447 E_long   =  -1714739.5612 Press    =      -796.1933 
Volume   =   3246129.5854
------------ Step            420 ----- CPU =     305.8168 (sec) -------------
TotEng   =   -703794.1279 KinEng   =     27469.5872 Temp     =        48.2135 
PotEng   =   -731263.7151 E_bond   =     59951.7627 E_angle  =      5782.7453 
E_dihed  =      8969.3154 E_impro  =         0.0000 E_vdwl   =    160397.8532 
E_coul   =    748379.3348 E_long   =  -1714744.7265 Press    =      -697.0358 
Volume   =   3246129.5854
------------ Step            425 ----- CPU =     309.9414 (sec) -------------
TotEng   =   -703559.7460 KinEng   =     27767.8252 Temp     =        48.7369 
PotEng   =   -731327.5712 E_bond   =     60060.2706 E_angle  =      5782.7453 
E_dihed  =      8969.3154 E_impro  =         0.0000 E_vdwl   =    160643.1317 
E_coul   =    747959.3377 E_long   =  -1714742.3720 Press    =      -652.8394 
Volume   =   3246129.5854
------------ Step            430 ----- CPU =     314.1162 (sec) -------------
TotEng   =   -703412.1223 KinEng   =     28085.7087 Temp     =        49.2949 
PotEng   =   -731497.8310 E_bond   =     60069.4647 E_angle  =      5782.7453 
E_dihed  =      8969.3154 E_impro  =         0.0000 E_vdwl   =    160850.9036 
E_coul   =    747562.6866 E_long   =  -1714732.9466 Press    =      -649.8096 
Volume   =   3246129.5854
------------ Step            435 ----- CPU =     319.5069 (sec) -------------
TotEng   =   -703217.1992 KinEng   =     28356.5207 Temp     =        49.7702 
PotEng   =   -731573.7199 E_bond   =     60072.2762 E_angle  =      5782.7453 
E_dihed  =      8969.3154 E_impro  =         0.0000 E_vdwl   =    161045.1941 
E_coul   =    747278.1112 E_long   =  -1714721.3622 Press    =      -692.3626 
Volume   =   3246129.5854
------------ Step            440 ----- CPU =     323.6853 (sec) -------------
TotEng   =   -703021.8861 KinEng   =     28595.5859 Temp     =        50.1898 
PotEng   =   -731617.4720 E_bond   =     60343.7028 E_angle  =      5782.7453 
E_dihed  =      8969.3154 E_impro  =         0.0000 E_vdwl   =    161187.8236 
E_coul   =    746841.7228 E_long   =  -1714742.7819 Press    =      -787.6139 
Volume   =   3246129.5854
------------ Step            445 ----- CPU =     329.0221 (sec) -------------
TotEng   =   -702882.6847 KinEng   =     28876.4692 Temp     =        50.6828 
PotEng   =   -731759.1539 E_bond   =     60333.7420 E_angle  =      5782.7453 
E_dihed  =      8969.3154 E_impro  =         0.0000 E_vdwl   =    161259.4919 
E_coul   =    746646.7099 E_long   =  -1714751.1584 Press    =      -890.7948 
Volume   =   3246129.5854
------------ Step            450 ----- CPU =      333.216 (sec) -------------
TotEng   =   -702718.5797 KinEng   =     29187.6544 Temp     =        51.2290 
PotEng   =   -731906.2341 E_bond   =     60470.5794 E_angle  =      5782.7453 
E_dihed  =      8969.3154 E_impro  =         0.0000 E_vdwl   =    161227.2108 
E_coul   =    746420.0954 E_long   =  -1714776.1804 Press    =     -1007.6966 
Volume   =   3246129.5854
------------ Step            455 ----- CPU =     337.8284 (sec) -------------
TotEng   =   -702550.4334 KinEng   =     29498.0266 Temp     =        51.7737 
PotEng   =   -732048.4601 E_bond   =     60640.6805 E_angle  =      5782.7453 
E_dihed  =      8969.3154 E_impro  =         0.0000 E_vdwl   =    161124.4382 
E_coul   =    746212.5995 E_long   =  -1714778.2390 Press    =     -1117.4250 
Volume   =   3246129.5854
------------ Step            460 ----- CPU =     342.1164 (sec) -------------
TotEng   =   -702437.5089 KinEng   =     29788.6026 Temp     =        52.2837 
PotEng   =   -732226.1115 E_bond   =     60568.4880 E_angle  =      5782.7453 
E_dihed  =      8969.3154 E_impro  =         0.0000 E_vdwl   =    161002.3638 
E_coul   =    746223.9216 E_long   =  -1714772.9456 Press    =     -1177.2467 
Volume   =   3246129.5854
------------ Step            465 ----- CPU =     347.5933 (sec) -------------
TotEng   =   -702279.4634 KinEng   =     30086.2234 Temp     =        52.8061 
PotEng   =   -732365.6868 E_bond   =     60571.6034 E_angle  =      5782.7453 
E_dihed  =      8969.3154 E_impro  =         0.0000 E_vdwl   =    160868.6663 
E_coul   =    746210.6611 E_long   =  -1714768.6783 Press    =     -1197.8402 
Volume   =   3246129.5854
------------ Step            470 ----- CPU =     351.9172 (sec) -------------
TotEng   =   -702079.5846 KinEng   =     30429.7575 Temp     =        53.4091 
PotEng   =   -732509.3422 E_bond   =     60574.2720 E_angle  =      5782.7453 
E_dihed  =      8969.3154 E_impro  =         0.0000 E_vdwl   =    160714.9815 
E_coul   =    746211.8160 E_long   =  -1714762.4724 Press    =     -1178.5831 
Volume   =   3246129.5854
------------ Step            475 ----- CPU =      356.293 (sec) -------------
TotEng   =   -701765.7781 KinEng   =     30794.3192 Temp     =        54.0489 
PotEng   =   -732560.0973 E_bond   =     60459.1660 E_angle  =      5782.7453 
E_dihed  =      8969.3154 E_impro  =         0.0000 E_vdwl   =    160537.8446 
E_coul   =    746468.2488 E_long   =  -1714777.4174 Press    =     -1098.7326 
Volume   =   3246129.5854
------------ Step            480 ----- CPU =      361.996 (sec) -------------
TotEng   =   -701446.7563 KinEng   =     31160.8580 Temp     =        54.6923 
PotEng   =   -732607.6143 E_bond   =     60284.1865 E_angle  =      5782.7453 
E_dihed  =      8969.3154 E_impro  =         0.0000 E_vdwl   =    160387.9275 
E_coul   =    746757.9490 E_long   =  -1714789.7380 Press    =      -988.3875 
Volume   =   3246129.5854
------------ Step            485 ----- CPU =     366.2767 (sec) -------------
TotEng   =   -701201.4879 KinEng   =     31510.4574 Temp     =        55.3059 
PotEng   =   -732711.9454 E_bond   =     60314.3976 E_angle  =      5782.7453 
E_dihed  =      8969.3154 E_impro  =         0.0000 E_vdwl   =    160283.9270 
E_coul   =    746749.7441 E_long   =  -1714812.0748 Press    =      -879.5364 
Volume   =   3246129.5854
------------ Step            490 ----- CPU =     371.7518 (sec) -------------
TotEng   =   -700917.1020 KinEng   =     31816.9756 Temp     =        55.8438 
PotEng   =   -732734.0776 E_bond   =     60127.8146 E_angle  =      5782.7453 
E_dihed  =      8969.3154 E_impro  =         0.0000 E_vdwl   =    160265.8000 
E_coul   =    746933.6002 E_long   =  -1714813.3530 Press    =      -750.6640 
Volume   =   3246129.5854
------------ Step            495 ----- CPU =     375.9512 (sec) -------------
TotEng   =   -700702.8159 KinEng   =     32103.1002 Temp     =        56.3460 
PotEng   =   -732805.9161 E_bond   =     60020.2035 E_angle  =      5782.7453 
E_dihed  =      8969.3154 E_impro  =         0.0000 E_vdwl   =    160333.7477 
E_coul   =    746904.9122 E_long   =  -1714816.8403 Press    =      -646.7553 
Volume   =   3246129.5854
------------ Step            500 ----- CPU =     381.4845 (sec) -------------
TotEng   =   -700269.4627 KinEng   =     32399.3362 Temp     =        56.8660 
PotEng   =   -732668.7988 E_bond   =     60115.2417 E_angle  =      5782.7453 
E_dihed  =      8969.3154 E_impro  =         0.0000 E_vdwl   =    160470.7305 
E_coul   =    746806.3283 E_long   =  -1714813.1600 Press    =      -580.1285 
Volume   =   3246129.5854
------------ Step            505 ----- CPU =      386.211 (sec) -------------
TotEng   =   -699907.9541 KinEng   =     32696.6364 Temp     =        57.3878 
PotEng   =   -732604.5905 E_bond   =     60057.3768 E_angle  =      5782.7453 
E_dihed  =      8969.3154 E_impro  =         0.0000 E_vdwl   =    160648.4603 
E_coul   =    746746.0621 E_long   =  -1714808.5504 Press    =      -545.1592 
Volume   =   3246129.5854
------------ Step            510 ----- CPU =     390.4631 (sec) -------------
TotEng   =   -699440.3202 KinEng   =     32998.4987 Temp     =        57.9176 
PotEng   =   -732438.8188 E_bond   =     60114.9575 E_angle  =      5782.7453 
E_dihed  =      8969.3154 E_impro  =         0.0000 E_vdwl   =    160840.2129 
E_coul   =    746674.3241 E_long   =  -1714820.3740 Press    =      -553.4687 
Volume   =   3246129.5854
------------ Step            515 ----- CPU =     396.0631 (sec) -------------
TotEng   =   -698993.5013 KinEng   =     33290.3499 Temp     =        58.4298 
PotEng   =   -732283.8511 E_bond   =     60264.4541 E_angle  =      5782.7453 
E_dihed  =      8969.3154 E_impro  =         0.0000 E_vdwl   =    161077.1766 
E_coul   =    746447.4389 E_long   =  -1714824.9814 Press    =      -611.1059 
Volume   =   3246129.5854
------------ Step            520 ----- CPU =     400.3234 (sec) -------------
TotEng   =   -698540.2045 KinEng   =     33573.0829 Temp     =        58.9261 
PotEng   =   -732113.2874 E_bond   =     60400.2354 E_angle  =      5782.7453 
E_dihed  =      8969.3154 E_impro  =         0.0000 E_vdwl   =    161350.5663 
E_coul   =    746221.4218 E_long   =  -1714837.5716 Press    =      -684.0272 
Volume   =   3246129.5854
------------ Step            525 ----- CPU =     404.5617 (sec) -------------
TotEng   =   -698170.0509 KinEng   =     33873.9013 Temp     =        59.4541 
PotEng   =   -732043.9522 E_bond   =     60451.9256 E_angle  =      5782.7453 
E_dihed  =      8969.3154 E_impro  =         0.0000 E_vdwl   =    161670.0864 
E_coul   =    745918.7039 E_long   =  -1714836.7289 Press    =      -764.0707 
Volume   =   3246129.5854
------------ Step            530 ----- CPU =     408.8804 (sec) -------------
TotEng   =   -697774.7640 KinEng   =     34164.7180 Temp     =        59.9645 
PotEng   =   -731939.4821 E_bond   =     60702.1255 E_angle  =      5782.7453 
E_dihed  =      8969.3154 E_impro  =         0.0000 E_vdwl   =    162009.2473 
E_coul   =    745436.3702 E_long   =  -1714839.2859 Press    =      -848.2349 
Volume   =   3246129.5854
------------ Step            535 ----- CPU =     414.4924 (sec) -------------
TotEng   =   -697363.0216 KinEng   =     34435.2187 Temp     =        60.4393 
PotEng   =   -731798.2403 E_bond   =     60803.6037 E_angle  =      5782.7453 
E_dihed  =      8969.3154 E_impro  =         0.0000 E_vdwl   =    162334.0983 
E_coul   =    745146.9241 E_long   =  -1714834.9271 Press    =      -893.5076 
Volume   =   3246129.5854
------------ Step            540 ----- CPU =     419.0001 (sec) -------------
TotEng   =   -696996.8314 KinEng   =     34719.4473 Temp     =        60.9381 
PotEng   =   -731716.2787 E_bond   =     60760.9564 E_angle  =      5782.7453 
E_dihed  =      8969.3154 E_impro  =         0.0000 E_vdwl   =    162636.0606 
E_coul   =    744973.7683 E_long   =  -1714839.1247 Press    =      -895.3252 
Volume   =   3246129.5854
------------ Step            545 ----- CPU =     423.3353 (sec) -------------
TotEng   =   -696686.5850 KinEng   =     35010.9793 Temp     =        61.4498 
PotEng   =   -731697.5643 E_bond   =     60953.9234 E_angle  =      5782.7453 
E_dihed  =      8969.3154 E_impro  =         0.0000 E_vdwl   =    162907.4997 
E_coul   =    744545.7534 E_long   =  -1714856.8016 Press    =      -876.2465 
Volume   =   3246129.5854
------------ Step            550 ----- CPU =     428.9034 (sec) -------------
TotEng   =   -696437.0326 KinEng   =     35279.3027 Temp     =        61.9208 
PotEng   =   -731716.3353 E_bond   =     60874.3389 E_angle  =      5782.7453 
E_dihed  =      8969.3154 E_impro  =         0.0000 E_vdwl   =    163160.9801 
E_coul   =    744358.1153 E_long   =  -1714861.8303 Press    =      -800.2350 
Volume   =   3246129.5854
------------ Step            555 ----- CPU =      433.927 (sec) -------------
TotEng   =   -695971.4213 KinEng   =     35534.7512 Temp     =        62.3691 
PotEng   =   -731506.1725 E_bond   =     60753.6152 E_angle  =      5782.7453 
E_dihed  =      8969.3154 E_impro  =         0.0000 E_vdwl   =    163374.0502 
E_coul   =    744484.9796 E_long   =  -1714870.8783 Press    =      -672.9518 
Volume   =   3246129.5854
------------ Step            560 ----- CPU =     438.6434 (sec) -------------
TotEng   =   -695654.1432 KinEng   =     35782.8378 Temp     =        62.8046 
PotEng   =   -731436.9809 E_bond   =     60735.8617 E_angle  =      5782.7453 
E_dihed  =      8969.3154 E_impro  =         0.0000 E_vdwl   =    163553.9978 
E_coul   =    744384.0044 E_long   =  -1714862.9056 Press    =      -547.7052 
Volume   =   3246129.5854
------------ Step            565 ----- CPU =       444.72 (sec) -------------
TotEng   =   -695360.0441 KinEng   =     36024.1802 Temp     =        63.2282 
PotEng   =   -731384.2242 E_bond   =     60631.3841 E_angle  =      5782.7453 
E_dihed  =      8969.3154 E_impro  =         0.0000 E_vdwl   =    163690.6257 
E_coul   =    744399.6911 E_long   =  -1714857.9858 Press    =      -412.2893 
Volume   =   3246129.5854
------------ Step            570 ----- CPU =     449.3658 (sec) -------------
TotEng   =   -695002.1502 KinEng   =     36274.3278 Temp     =        63.6672 
PotEng   =   -731276.4781 E_bond   =     60468.9917 E_angle  =      5782.7453 
E_dihed  =      8969.3154 E_impro  =         0.0000 E_vdwl   =    163768.5570 
E_coul   =    744589.9533 E_long   =  -1714856.0408 Press    =      -285.4046 
Volume   =   3246129.5854
------------ Step            575 ----- CPU =     453.9429 (sec) -------------
TotEng   =   -694624.9794 KinEng   =     36505.0677 Temp     =        64.0722 
PotEng   =   -731130.0471 E_bond   =     60514.7630 E_angle  =      5782.7453 
E_dihed  =      8969.3154 E_impro  =         0.0000 E_vdwl   =    163780.4228 
E_coul   =    744683.2542 E_long   =  -1714860.5478 Press    =      -209.3532 
Volume   =   3246129.5854
------------ Step            580 ----- CPU =     460.1973 (sec) -------------
TotEng   =   -694173.9917 KinEng   =     36712.1666 Temp     =        64.4357 
PotEng   =   -730886.1583 E_bond   =     60524.4453 E_angle  =      5782.7453 
E_dihed  =      8969.3154 E_impro  =         0.0000 E_vdwl   =    163726.2530 
E_coul   =    744980.9771 E_long   =  -1714869.8944 Press    =      -168.2161 
Volume   =   3246129.5854
------------ Step            585 ----- CPU =     464.7322 (sec) -------------
TotEng   =   -693877.4354 KinEng   =     36946.1321 Temp     =        64.8463 
PotEng   =   -730823.5676 E_bond   =     60410.1888 E_angle  =      5782.7453 
E_dihed  =      8969.3154 E_impro  =         0.0000 E_vdwl   =    163619.4760 
E_coul   =    745271.5739 E_long   =  -1714876.8669 Press    =      -174.8847 
Volume   =   3246129.5854
------------ Step            590 ----- CPU =     469.6143 (sec) -------------
TotEng   =   -693670.3786 KinEng   =     37228.7218 Temp     =        65.3423 
PotEng   =   -730899.1004 E_bond   =     60607.9809 E_angle  =      5782.7453 
E_dihed  =      8969.3154 E_impro  =         0.0000 E_vdwl   =    163468.0154 
E_coul   =    745159.6667 E_long   =  -1714886.8241 Press    =      -252.9853 
Volume   =   3246129.5854
------------ Step            595 ----- CPU =     475.6163 (sec) -------------
TotEng   =   -693383.5434 KinEng   =     37502.4526 Temp     =        65.8228 
PotEng   =   -730885.9960 E_bond   =     60648.2526 E_angle  =      5782.7453 
E_dihed  =      8969.3154 E_impro  =         0.0000 E_vdwl   =    163320.4459 
E_coul   =    745270.0602 E_long   =  -1714876.8154 Press    =      -349.1082 
Volume   =   3246129.5854
------------ Step            600 ----- CPU =     479.9285 (sec) -------------
TotEng   =   -693151.0183 KinEng   =     37737.8330 Temp     =        66.2359 
PotEng   =   -730888.8514 E_bond   =     60639.7991 E_angle  =      5782.7453 
E_dihed  =      8969.3154 E_impro  =         0.0000 E_vdwl   =    163183.2450 
E_coul   =    745407.5688 E_long   =  -1714871.5250 Press    =      -456.0200 
Volume   =   3246129.5854
------------ Step            605 ----- CPU =     485.9766 (sec) -------------
TotEng   =   -692862.4305 KinEng   =     37974.2885 Temp     =        66.6509 
PotEng   =   -730836.7190 E_bond   =     60786.9958 E_angle  =      5782.7453 
E_dihed  =      8969.3154 E_impro  =         0.0000 E_vdwl   =    163074.9387 
E_coul   =    745410.1427 E_long   =  -1714860.8568 Press    =      -573.2448 
Volume   =   3246129.5854
------------ Step            610 ----- CPU =     490.2124 (sec) -------------
TotEng   =   -692569.9356 KinEng   =     38237.3684 Temp     =        67.1126 
PotEng   =   -730807.3041 E_bond   =     60881.2231 E_angle  =      5782.7453 
E_dihed  =      8969.3154 E_impro  =         0.0000 E_vdwl   =    162991.7754 
E_coul   =    745429.7603 E_long   =  -1714862.1236 Press    =      -669.4770 
Volume   =   3246129.5854
------------ Step            615 ----- CPU =     494.4645 (sec) -------------
TotEng   =   -692143.9415 KinEng   =     38506.3081 Temp     =        67.5847 
PotEng   =   -730650.2496 E_bond   =     60915.1921 E_angle  =      5782.7453 
E_dihed  =      8969.3154 E_impro  =         0.0000 E_vdwl   =    162909.4325 
E_coul   =    745652.3040 E_long   =  -1714879.2389 Press    =      -718.7488 
Volume   =   3246129.5854
------------ Step            620 ----- CPU =     499.9876 (sec) -------------
TotEng   =   -691777.2848 KinEng   =     38778.2124 Temp     =        68.0619 
PotEng   =   -730555.4972 E_bond   =     60962.5958 E_angle  =      5782.7453 
E_dihed  =      8969.3154 E_impro  =         0.0000 E_vdwl   =    162828.1494 
E_coul   =    745791.2065 E_long   =  -1714889.5096 Press    =      -738.2522 
Volume   =   3246129.5854
------------ Step            625 ----- CPU =     504.2415 (sec) -------------
TotEng   =   -691506.2788 KinEng   =     39063.0802 Temp     =        68.5619 
PotEng   =   -730569.3590 E_bond   =     61007.6204 E_angle  =      5782.7453 
E_dihed  =      8969.3154 E_impro  =         0.0000 E_vdwl   =    162749.2272 
E_coul   =    745822.3555 E_long   =  -1714900.6228 Press    =      -716.4868 
Volume   =   3246129.5854
------------ Step            630 ----- CPU =     508.5813 (sec) -------------
TotEng   =   -691248.8315 KinEng   =     39346.8170 Temp     =        69.0599 
PotEng   =   -730595.6485 E_bond   =     60838.1564 E_angle  =      5782.7453 
E_dihed  =      8969.3154 E_impro  =         0.0000 E_vdwl   =    162713.8553 
E_coul   =    745999.7533 E_long   =  -1714899.4741 Press    =      -637.4535 
Volume   =   3246129.5854
------------ Step            635 ----- CPU =      514.132 (sec) -------------
TotEng   =   -690884.3621 KinEng   =     39604.4240 Temp     =        69.5120 
PotEng   =   -730488.7861 E_bond   =     60812.6032 E_angle  =      5782.7453 
E_dihed  =      8969.3154 E_impro  =         0.0000 E_vdwl   =    162728.3389 
E_coul   =    746113.3791 E_long   =  -1714895.1680 Press    =      -529.6069 
Volume   =   3246129.5854
------------ Step            640 ----- CPU =     518.4231 (sec) -------------
TotEng   =   -690557.7363 KinEng   =     39816.2074 Temp     =        69.8838 
PotEng   =   -730373.9437 E_bond   =     60728.1561 E_angle  =      5782.7453 
E_dihed  =      8969.3154 E_impro  =         0.0000 E_vdwl   =    162803.3365 
E_coul   =    746230.9176 E_long   =  -1714888.4145 Press    =      -402.8323 
Volume   =   3246129.5854
------------ Step            645 ----- CPU =     522.9623 (sec) -------------
TotEng   =   -690244.4702 KinEng   =     40021.0626 Temp     =        70.2433 
PotEng   =   -730265.5327 E_bond   =     60546.3277 E_angle  =      5782.7453 
E_dihed  =      8969.3154 E_impro  =         0.0000 E_vdwl   =    162916.2608 
E_coul   =    746411.6314 E_long   =  -1714891.8134 Press    =      -268.3128 
Volume   =   3246129.5854
------------ Step            650 ----- CPU =     528.6659 (sec) -------------
TotEng   =   -689823.9475 KinEng   =     40253.9673 Temp     =        70.6521 
PotEng   =   -730077.9148 E_bond   =     60589.9726 E_angle  =      5782.7453 
E_dihed  =      8969.3154 E_impro  =         0.0000 E_vdwl   =    163063.6180 
E_coul   =    746418.2501 E_long   =  -1714901.8162 Press    =      -163.3156 
Volume   =   3246129.5854
------------ Step            655 ----- CPU =     533.4211 (sec) -------------
TotEng   =   -689501.5689 KinEng   =     40470.1122 Temp     =        71.0315 
PotEng   =   -729971.6811 E_bond   =     60616.7806 E_angle  =      5782.7453 
E_dihed  =      8969.3154 E_impro  =         0.0000 E_vdwl   =    163247.8242 
E_coul   =    746326.7098 E_long   =  -1714915.0563 Press    =       -96.1253 
Volume   =   3246129.5854
------------ Step            660 ----- CPU =     537.7448 (sec) -------------
TotEng   =   -689130.2330 KinEng   =     40661.2483 Temp     =        71.3669 
PotEng   =   -729791.4814 E_bond   =     60603.3760 E_angle  =      5782.7453 
E_dihed  =      8969.3154 E_impro  =         0.0000 E_vdwl   =    163414.3211 
E_coul   =    746368.1374 E_long   =  -1714929.3766 Press    =       -59.4074 
Volume   =   3246129.5854
------------ Step            665 ----- CPU =     543.3849 (sec) -------------
TotEng   =   -688730.8224 KinEng   =     40905.1688 Temp     =        71.7951 
PotEng   =   -729635.9912 E_bond   =     60646.2584 E_angle  =      5782.7453 
E_dihed  =      8969.3154 E_impro  =         0.0000 E_vdwl   =    163561.3589 
E_coul   =    746332.8109 E_long   =  -1714928.4802 Press    =       -73.1638 
Volume   =   3246129.5854
------------ Step            670 ----- CPU =     547.7488 (sec) -------------
TotEng   =   -688451.3003 KinEng   =     41180.5188 Temp     =        72.2783 
PotEng   =   -729631.8191 E_bond   =     60823.9848 E_angle  =      5782.7453 
E_dihed  =      8969.3154 E_impro  =         0.0000 E_vdwl   =    163675.1579 
E_coul   =    746047.4426 E_long   =  -1714930.4651 Press    =      -139.7240 
Volume   =   3246129.5854
------------ Step            675 ----- CPU =     553.3553 (sec) -------------
TotEng   =   -688112.2699 KinEng   =     41464.2706 Temp     =        72.7764 
PotEng   =   -729576.5405 E_bond   =     60787.3136 E_angle  =      5782.7453 
E_dihed  =      8969.3154 E_impro  =         0.0000 E_vdwl   =    163760.6085 
E_coul   =    746045.3598 E_long   =  -1714921.8831 Press    =      -214.9041 
Volume   =   3246129.5854
------------ Step            680 ----- CPU =     557.6716 (sec) -------------
TotEng   =   -687760.9522 KinEng   =     41748.5665 Temp     =        73.2754 
PotEng   =   -729509.5187 E_bond   =     60916.9022 E_angle  =      5782.7453 
E_dihed  =      8969.3154 E_impro  =         0.0000 E_vdwl   =    163817.7779 
E_coul   =    745922.9670 E_long   =  -1714919.2266 Press    =      -313.1202 
Volume   =   3246129.5854
------------ Step            685 ----- CPU =     563.2782 (sec) -------------
TotEng   =   -687467.8770 KinEng   =     42025.9943 Temp     =        73.7623 
PotEng   =   -729493.8713 E_bond   =     61101.3955 E_angle  =      5782.7453 
E_dihed  =      8969.3154 E_impro  =         0.0000 E_vdwl   =    163863.6811 
E_coul   =    745714.3791 E_long   =  -1714925.3877 Press    =      -414.3333 
Volume   =   3246129.5854
------------ Step            690 ----- CPU =     567.6371 (sec) -------------
TotEng   =   -687137.6989 KinEng   =     42303.6000 Temp     =        74.2495 
PotEng   =   -729441.2989 E_bond   =     61052.5865 E_angle  =      5782.7453 
E_dihed  =      8969.3154 E_impro  =         0.0000 E_vdwl   =    163925.5189 
E_coul   =    745755.9009 E_long   =  -1714927.3659 Press    =      -475.9919 
Volume   =   3246129.5854
------------ Step            695 ----- CPU =     573.2105 (sec) -------------
TotEng   =   -686780.0568 KinEng   =     42605.7191 Temp     =        74.7798 
PotEng   =   -729385.7759 E_bond   =     61195.0075 E_angle  =      5782.7453 
E_dihed  =      8969.3154 E_impro  =         0.0000 E_vdwl   =    164005.9098 
E_coul   =    745599.7356 E_long   =  -1714938.4896 Press    =      -513.0347 
Volume   =   3246129.5854
------------ Step            700 ----- CPU =     577.5659 (sec) -------------
TotEng   =   -686419.0703 KinEng   =     42891.5894 Temp     =        75.2815 
PotEng   =   -729310.6597 E_bond   =     61250.0444 E_angle  =      5782.7453 
E_dihed  =      8969.3154 E_impro  =         0.0000 E_vdwl   =    164118.0709 
E_coul   =    745515.9442 E_long   =  -1714946.7799 Press    =      -504.3232 
Volume   =   3246129.5854
------------ Step            705 ----- CPU =     583.5886 (sec) -------------
TotEng   =   -686097.9040 KinEng   =     43157.9718 Temp     =        75.7491 
PotEng   =   -729255.8758 E_bond   =     61148.5509 E_angle  =      5782.7453 
E_dihed  =      8969.3154 E_impro  =         0.0000 E_vdwl   =    164248.6057 
E_coul   =    745539.7724 E_long   =  -1714944.8655 Press    =      -441.2577 
Volume   =   3246129.5854
------------ Step            710 ----- CPU =     588.0905 (sec) -------------
TotEng   =   -685583.4812 KinEng   =     43436.5291 Temp     =        76.2380 
PotEng   =   -729020.0103 E_bond   =     61111.4689 E_angle  =      5782.7453 
E_dihed  =      8969.3154 E_impro  =         0.0000 E_vdwl   =    164401.8723 
E_coul   =    745654.3093 E_long   =  -1714939.7216 Press    =      -336.8922 
Volume   =   3246129.5854
------------ Step            715 ----- CPU =     592.4584 (sec) -------------
TotEng   =   -685149.4282 KinEng   =     43760.9245 Temp     =        76.8074 
PotEng   =   -728910.3527 E_bond   =     61089.8548 E_angle  =      5782.7453 
E_dihed  =      8969.3154 E_impro  =         0.0000 E_vdwl   =    164551.4970 
E_coul   =    745640.5423 E_long   =  -1714944.3075 Press    =      -216.7509 
Volume   =   3246129.5854
------------ Step            720 ----- CPU =     598.2772 (sec) -------------
TotEng   =   -684558.1492 KinEng   =     44107.7715 Temp     =        77.4161 
PotEng   =   -728665.9207 E_bond   =     60948.0020 E_angle  =      5782.7453 
E_dihed  =      8969.3154 E_impro  =         0.0000 E_vdwl   =    164715.5011 
E_coul   =    745863.7715 E_long   =  -1714945.2560 Press    =       -71.3305 
Volume   =   3246129.5854
------------ Step            725 ----- CPU =     602.6606 (sec) -------------
TotEng   =   -684157.0771 KinEng   =     44466.9314 Temp     =        78.0465 
PotEng   =   -728624.0086 E_bond   =     60904.1506 E_angle  =      5782.7453 
E_dihed  =      8969.3154 E_impro  =         0.0000 E_vdwl   =    164888.2601 
E_coul   =    745778.8777 E_long   =  -1714947.3576 Press    =        47.6032 
Volume   =   3246129.5854
------------ Step            730 ----- CPU =     608.5304 (sec) -------------
TotEng   =   -683628.2085 KinEng   =     44853.8922 Temp     =        78.7257 
PotEng   =   -728482.1008 E_bond   =     60947.1581 E_angle  =      5782.7453 
E_dihed  =      8969.3154 E_impro  =         0.0000 E_vdwl   =    165052.5051 
E_coul   =    745723.9560 E_long   =  -1714957.7807 Press    =       142.4239 
Volume   =   3246129.5854
------------ Step            735 ----- CPU =     613.0095 (sec) -------------
TotEng   =   -683188.2607 KinEng   =     45225.3288 Temp     =        79.3776 
PotEng   =   -728413.5894 E_bond   =     60859.6864 E_angle  =      5782.7453 
E_dihed  =      8969.3154 E_impro  =         0.0000 E_vdwl   =    165239.2370 
E_coul   =    745694.9371 E_long   =  -1714959.5106 Press    =       207.0985 
Volume   =   3246129.5854
------------ Step            740 ----- CPU =     617.5446 (sec) -------------
TotEng   =   -682704.0876 KinEng   =     45522.9311 Temp     =        79.9000 
PotEng   =   -728227.0187 E_bond   =     60956.5484 E_angle  =      5782.7453 
E_dihed  =      8969.3154 E_impro  =         0.0000 E_vdwl   =    165464.6416 
E_coul   =    745558.9863 E_long   =  -1714959.2556 Press    =       227.6951 
Volume   =   3246129.5854
------------ Step            745 ----- CPU =     623.6217 (sec) -------------
TotEng   =   -682360.2366 KinEng   =     45786.6101 Temp     =        80.3628 
PotEng   =   -728146.8467 E_bond   =     61014.7345 E_angle  =      5782.7453 
E_dihed  =      8969.3154 E_impro  =         0.0000 E_vdwl   =    165758.5380 
E_coul   =    745282.2486 E_long   =  -1714954.4286 Press    =       205.2422 
Volume   =   3246129.5854
------------ Step            750 ----- CPU =     628.1428 (sec) -------------
TotEng   =   -681880.1915 KinEng   =     46057.3463 Temp     =        80.8380 
PotEng   =   -727937.5378 E_bond   =     61098.1695 E_angle  =      5782.7453 
E_dihed  =      8969.3154 E_impro  =         0.0000 E_vdwl   =    166096.2997 
E_coul   =    745068.8256 E_long   =  -1714952.8933 Press    =       160.6876 
Volume   =   3246129.5854
------------ Step            755 ----- CPU =     634.1644 (sec) -------------
TotEng   =   -681488.7074 KinEng   =     46303.8895 Temp     =        81.2707 
PotEng   =   -727792.5969 E_bond   =     61251.2647 E_angle  =      5782.7453 
E_dihed  =      8969.3154 E_impro  =         0.0000 E_vdwl   =    166469.8162 
E_coul   =    744687.5079 E_long   =  -1714953.2464 Press    =        90.2819 
Volume   =   3246129.5854
------------ Step            760 ----- CPU =     638.8162 (sec) -------------
TotEng   =   -681068.4618 KinEng   =     46601.5590 Temp     =        81.7931 
PotEng   =   -727670.0208 E_bond   =     61353.3421 E_angle  =      5782.7453 
E_dihed  =      8969.3154 E_impro  =         0.0000 E_vdwl   =    166841.6621 
E_coul   =    744340.2318 E_long   =  -1714957.3176 Press    =        17.6484 
Volume   =   3246129.5854
------------ Step            765 ----- CPU =     643.5016 (sec) -------------
TotEng   =   -680559.0866 KinEng   =     46940.2284 Temp     =        82.3875 
PotEng   =   -727499.3150 E_bond   =     61521.2485 E_angle  =      5782.7453 
E_dihed  =      8969.3154 E_impro  =         0.0000 E_vdwl   =    167182.1051 
E_coul   =    744015.3788 E_long   =  -1714970.1081 Press    =       -41.1622 
Volume   =   3246129.5854
------------ Step            770 ----- CPU =     650.8054 (sec) -------------
TotEng   =   -680182.2488 KinEng   =     47260.6788 Temp     =        82.9500 
PotEng   =   -727442.9276 E_bond   =     61583.9620 E_angle  =      5782.7453 
E_dihed  =      8969.3154 E_impro  =         0.0000 E_vdwl   =    167507.1404 
E_coul   =    743686.6668 E_long   =  -1714972.7574 Press    =       -75.5106 
Volume   =   3246129.5854
------------ Step            775 ----- CPU =     655.9422 (sec) -------------
TotEng   =   -679719.8054 KinEng   =     47538.2061 Temp     =        83.4371 
PotEng   =   -727258.0115 E_bond   =     61665.8161 E_angle  =      5782.7453 
E_dihed  =      8969.3154 E_impro  =         0.0000 E_vdwl   =    167807.4634 
E_coul   =    743496.3255 E_long   =  -1714979.6772 Press    =       -69.6544 
Volume   =   3246129.5854
------------ Step            780 ----- CPU =     662.5025 (sec) -------------
TotEng   =   -679130.4784 KinEng   =     47804.6509 Temp     =        83.9047 
PotEng   =   -726935.1293 E_bond   =     61636.3298 E_angle  =      5782.7453 
E_dihed  =      8969.3154 E_impro  =         0.0000 E_vdwl   =    168089.7014 
E_coul   =    743570.0438 E_long   =  -1714983.2650 Press    =       -12.2953 
Volume   =   3246129.5854
------------ Step            785 ----- CPU =     670.0816 (sec) -------------
TotEng   =   -678645.6300 KinEng   =     48099.5570 Temp     =        84.4224 
PotEng   =   -726745.1870 E_bond   =     61597.2503 E_angle  =      5782.7453 
E_dihed  =      8969.3154 E_impro  =         0.0000 E_vdwl   =    168340.4982 
E_coul   =    743553.2196 E_long   =  -1714988.2158 Press    =        74.6206 
Volume   =   3246129.5854
------------ Step            790 ----- CPU =     677.0778 (sec) -------------
TotEng   =   -678310.8906 KinEng   =     48415.7483 Temp     =        84.9773 
PotEng   =   -726726.6389 E_bond   =     61579.0479 E_angle  =      5782.7453 
E_dihed  =      8969.3154 E_impro  =         0.0000 E_vdwl   =    168555.6916 
E_coul   =    743385.2443 E_long   =  -1714998.6834 Press    =       177.2476 
Volume   =   3246129.5854
------------ Step            795 ----- CPU =     682.2834 (sec) -------------
TotEng   =   -677859.8965 KinEng   =     48736.5664 Temp     =        85.5404 
PotEng   =   -726596.4628 E_bond   =     61481.8052 E_angle  =      5782.7453 
E_dihed  =      8969.3154 E_impro  =         0.0000 E_vdwl   =    168739.8081 
E_coul   =    743430.6398 E_long   =  -1715000.7767 Press    =       302.9643 
Volume   =   3246129.5854
------------ Step            800 ----- CPU =     688.5994 (sec) -------------
TotEng   =   -677448.8918 KinEng   =     49077.4434 Temp     =        86.1387 
PotEng   =   -726526.3353 E_bond   =     61424.2236 E_angle  =      5782.7453 
E_dihed  =      8969.3154 E_impro  =         0.0000 E_vdwl   =    168895.1665 
E_coul   =    743402.6875 E_long   =  -1715000.4736 Press    =       423.0660 
Volume   =   3246129.5854
------------ Step            805 ----- CPU =     694.0187 (sec) -------------
TotEng   =   -676941.4116 KinEng   =     49391.7977 Temp     =        86.6904 
PotEng   =   -726333.2093 E_bond   =     61374.7870 E_angle  =      5782.7453 
E_dihed  =      8969.3154 E_impro  =         0.0000 E_vdwl   =    169055.0184 
E_coul   =    743485.5265 E_long   =  -1715000.6020 Press    =       531.3337 
Volume   =   3246129.5854
------------ Step            810 ----- CPU =     700.1944 (sec) -------------
TotEng   =   -676389.8429 KinEng   =     49704.8495 Temp     =        87.2399 
PotEng   =   -726094.6924 E_bond   =     61350.8610 E_angle  =      5782.7453 
E_dihed  =      8969.3154 E_impro  =         0.0000 E_vdwl   =    169227.0641 
E_coul   =    743577.0232 E_long   =  -1715001.7014 Press    =       614.7751 
Volume   =   3246129.5854
------------ Step            815 ----- CPU =      704.977 (sec) -------------
TotEng   =   -675830.2985 KinEng   =     49991.6968 Temp     =        87.7434 
PotEng   =   -725821.9953 E_bond   =     61328.6790 E_angle  =      5782.7453 
E_dihed  =      8969.3154 E_impro  =         0.0000 E_vdwl   =    169417.6046 
E_coul   =    743676.0403 E_long   =  -1714996.3798 Press    =       661.4694 
Volume   =   3246129.5854
------------ Step            820 ----- CPU =     710.4992 (sec) -------------
TotEng   =   -675351.6097 KinEng   =     50218.8819 Temp     =        88.1421 
PotEng   =   -725570.4916 E_bond   =     61448.6297 E_angle  =      5782.7453 
E_dihed  =      8969.3154 E_impro  =         0.0000 E_vdwl   =    169610.6536 
E_coul   =    743615.0107 E_long   =  -1714996.8464 Press    =       657.7142 
Volume   =   3246129.5854
------------ Step            825 ----- CPU =     718.0539 (sec) -------------
TotEng   =   -674896.0561 KinEng   =     50458.7129 Temp     =        88.5630 
PotEng   =   -725354.7691 E_bond   =     61434.4845 E_angle  =      5782.7453 
E_dihed  =      8969.3154 E_impro  =         0.0000 E_vdwl   =    169803.9362 
E_coul   =    743647.3191 E_long   =  -1714992.5694 Press    =       623.6930 
Volume   =   3246129.5854
------------ Step            830 ----- CPU =     723.5537 (sec) -------------
TotEng   =   -674336.5241 KinEng   =     50737.0507 Temp     =        89.0516 
PotEng   =   -725073.5749 E_bond   =     61523.1294 E_angle  =      5782.7453 
E_dihed  =      8969.3154 E_impro  =         0.0000 E_vdwl   =    169971.7090 
E_coul   =    743671.2910 E_long   =  -1714991.7650 Press    =       560.9035 
Volume   =   3246129.5854
------------ Step            835 ----- CPU =     728.7143 (sec) -------------
TotEng   =   -673828.4460 KinEng   =     51038.9628 Temp     =        89.5815 
PotEng   =   -724867.4087 E_bond   =     61722.0632 E_angle  =      5782.7453 
E_dihed  =      8969.3154 E_impro  =         0.0000 E_vdwl   =    170100.1640 
E_coul   =    743560.9462 E_long   =  -1715002.6428 Press    =       476.5810 
Volume   =   3246129.5854
------------ Step            840 ----- CPU =     734.5108 (sec) -------------
TotEng   =   -673358.0676 KinEng   =     51383.3162 Temp     =        90.1859 
PotEng   =   -724741.3838 E_bond   =     61717.5291 E_angle  =      5782.7453 
E_dihed  =      8969.3154 E_impro  =         0.0000 E_vdwl   =    170183.7986 
E_coul   =    743609.1340 E_long   =  -1715003.9063 Press    =       400.1217 
Volume   =   3246129.5854
------------ Step            845 ----- CPU =     738.9061 (sec) -------------
TotEng   =   -672838.5784 KinEng   =     51680.3018 Temp     =        90.7071 
PotEng   =   -724518.8802 E_bond   =     61854.5041 E_angle  =      5782.7453 
E_dihed  =      8969.3154 E_impro  =         0.0000 E_vdwl   =    170224.4940 
E_coul   =    743658.7118 E_long   =  -1715008.6508 Press    =       334.6149 
Volume   =   3246129.5854
------------ Step            850 ----- CPU =     744.8461 (sec) -------------
TotEng   =   -672332.5045 KinEng   =     51987.7481 Temp     =        91.2467 
PotEng   =   -724320.2526 E_bond   =     61898.2956 E_angle  =      5782.7453 
E_dihed  =      8969.3154 E_impro  =         0.0000 E_vdwl   =    170255.7362 
E_coul   =    743782.7506 E_long   =  -1715009.0956 Press    =       302.5839 
Volume   =   3246129.5854
------------ Step            855 ----- CPU =     750.2948 (sec) -------------
TotEng   =   -671847.5920 KinEng   =     52262.6552 Temp     =        91.7293 
PotEng   =   -724110.2471 E_bond   =     61874.8095 E_angle  =      5782.7453 
E_dihed  =      8969.3154 E_impro  =         0.0000 E_vdwl   =    170300.3802 
E_coul   =    743964.7623 E_long   =  -1715002.2598 Press    =       312.4615 
Volume   =   3246129.5854
------------ Step            860 ----- CPU =     756.1408 (sec) -------------
TotEng   =   -671303.8678 KinEng   =     52495.4647 Temp     =        92.1379 
PotEng   =   -723799.3325 E_bond   =     61854.6567 E_angle  =      5782.7453 
E_dihed  =      8969.3154 E_impro  =         0.0000 E_vdwl   =    170373.8232 
E_coul   =    744217.7687 E_long   =  -1714997.6419 Press    =       364.4620 
Volume   =   3246129.5854
------------ Step            865 ----- CPU =     760.5823 (sec) -------------
TotEng   =   -670735.7467 KinEng   =     52755.8417 Temp     =        92.5949 
PotEng   =   -723491.5883 E_bond   =     61774.4036 E_angle  =      5782.7453 
E_dihed  =      8969.3154 E_impro  =         0.0000 E_vdwl   =    170466.1975 
E_coul   =    744509.3260 E_long   =  -1714993.5761 Press    =       455.7639 
Volume   =   3246129.5854
------------ Step            870 ----- CPU =     764.9867 (sec) -------------
TotEng   =   -670293.7930 KinEng   =     53055.3603 Temp     =        93.1206 
PotEng   =   -723349.1533 E_bond   =     61648.3229 E_angle  =      5782.7453 
E_dihed  =      8969.3154 E_impro  =         0.0000 E_vdwl   =    170564.8571 
E_coul   =    744671.9514 E_long   =  -1714986.3453 Press    =       566.1675 
Volume   =   3246129.5854
------------ Step            875 ----- CPU =     770.7996 (sec) -------------
[...]
E_coul   =    984471.6741 E_long   =  -1715471.3521 Press    =      -131.8438
------------ Step          29855 ----- CPU =     15028.68 (sec) -------------
TotEng   =   -379536.6101 KinEng   =    170627.1698 Temp     =       299.4778 
PotEng   =   -550163.7799 E_bond   =     69210.6207 E_angle  =      5415.5263 
E_dihed  =      9088.7037 E_impro  =         0.0000 E_vdwl   =     97066.7916 
E_coul   =    984518.8233 E_long   =  -1715464.2455 Press    =      -110.9309
------------ Step          29860 ----- CPU =     15032.96 (sec) -------------
TotEng   =   -379626.4688 KinEng   =    170483.9732 Temp     =       299.2264 
PotEng   =   -550110.4420 E_bond   =     68890.7786 E_angle  =      5468.8925 
E_dihed  =      9079.1220 E_impro  =         0.0000 E_vdwl   =     97150.0642 
E_coul   =    984775.2660 E_long   =  -1715474.5651 Press    =       -70.3720
------------ Step          29865 ----- CPU =     15037.43 (sec) -------------
TotEng   =   -379555.5696 KinEng   =    170472.0233 Temp     =       299.2055 
PotEng   =   -550027.5930 E_bond   =     69161.1954 E_angle  =      5466.3642 
E_dihed  =      9091.6063 E_impro  =         0.0000 E_vdwl   =     97189.9231 
E_coul   =    984554.3141 E_long   =  -1715490.9961 Press    =       -95.0053
------------ Step          29870 ----- CPU =     15043.34 (sec) -------------
TotEng   =   -379506.3698 KinEng   =    170519.2323 Temp     =       299.2883 
PotEng   =   -550025.6022 E_bond   =     69388.0811 E_angle  =      5394.5842 
E_dihed  =      9081.3058 E_impro  =         0.0000 E_vdwl   =     97193.6702 
E_coul   =    984410.2382 E_long   =  -1715493.4816 Press    =      -100.9999
------------ Step          29875 ----- CPU =     15047.78 (sec) -------------
TotEng   =   -379513.7567 KinEng   =    170811.4402 Temp     =       299.8012 
PotEng   =   -550325.1969 E_bond   =     69027.6258 E_angle  =      5473.5292 
E_dihed  =      9055.3631 E_impro  =         0.0000 E_vdwl   =     97179.0936 
E_coul   =    984423.4002 E_long   =  -1715484.2089 Press    =       -72.2901
------------ Step          29880 ----- CPU =     15054.13 (sec) -------------
TotEng   =   -379344.4959 KinEng   =    170854.6679 Temp     =       299.8771 
PotEng   =   -550199.1638 E_bond   =     69200.1229 E_angle  =      5490.3536 
E_dihed  =      9064.5610 E_impro  =         0.0000 E_vdwl   =     97126.7041 
E_coul   =    984405.2298 E_long   =  -1715486.1351 Press    =       -93.6167
------------ Step          29885 ----- CPU =     15058.63 (sec) -------------
TotEng   =   -379305.7673 KinEng   =    170537.4266 Temp     =       299.3202 
PotEng   =   -549843.1939 E_bond   =     69440.2696 E_angle  =      5427.7095 
E_dihed  =      9076.4550 E_impro  =         0.0000 E_vdwl   =     97064.3053 
E_coul   =    984632.4140 E_long   =  -1715484.3472 Press    =      -107.4465
------------ Step          29890 ----- CPU =     15063.16 (sec) -------------
TotEng   =   -379287.6698 KinEng   =    170776.5448 Temp     =       299.7399 
PotEng   =   -550064.2146 E_bond   =     68799.7304 E_angle  =      5437.0563 
E_dihed  =      9085.2382 E_impro  =         0.0000 E_vdwl   =     96989.4163 
E_coul   =    985119.0094 E_long   =  -1715494.6652 Press    =       -80.9578
------------ Step          29895 ----- CPU =     15069.46 (sec) -------------
TotEng   =   -379283.6576 KinEng   =    171070.2624 Temp     =       300.2555 
PotEng   =   -550353.9200 E_bond   =     69219.7543 E_angle  =      5420.6984 
E_dihed  =      9096.0285 E_impro  =         0.0000 E_vdwl   =     96967.1977 
E_coul   =    984435.5124 E_long   =  -1715493.1113 Press    =      -122.9696
------------ Step          29900 ----- CPU =     15073.96 (sec) -------------
TotEng   =   -379221.7996 KinEng   =    171196.5109 Temp     =       300.4770 
PotEng   =   -550418.3104 E_bond   =     69625.8322 E_angle  =      5312.4031 
E_dihed  =      9093.0355 E_impro  =         0.0000 E_vdwl   =     96949.5226 
E_coul   =    984079.9896 E_long   =  -1715479.0935 Press    =      -155.1381
------------ Step          29905 ----- CPU =      15080.8 (sec) -------------
TotEng   =   -379344.3585 KinEng   =    171246.4623 Temp     =       300.5647 
PotEng   =   -550590.8208 E_bond   =     68865.1175 E_angle  =      5467.9869 
E_dihed  =      9100.7566 E_impro  =         0.0000 E_vdwl   =     96936.3490 
E_coul   =    984510.6966 E_long   =  -1715471.7274 Press    =       -92.0768
------------ Step          29910 ----- CPU =     15086.74 (sec) -------------
TotEng   =   -379371.8372 KinEng   =    170976.4865 Temp     =       300.0909 
PotEng   =   -550348.3238 E_bond   =     69427.3690 E_angle  =      5454.0284 
E_dihed  =      9110.7106 E_impro  =         0.0000 E_vdwl   =     96929.7392 
E_coul   =    984203.9076 E_long   =  -1715474.0785 Press    =      -154.4411
------------ Step          29915 ----- CPU =     15093.21 (sec) -------------
TotEng   =   -379524.9584 KinEng   =    170784.7928 Temp     =       299.7544 
PotEng   =   -550309.7512 E_bond   =     69502.6500 E_angle  =      5443.1533 
E_dihed  =      9095.8403 E_impro  =         0.0000 E_vdwl   =     96965.1519 
E_coul   =    984157.9672 E_long   =  -1715474.5139 Press    =      -152.3525
------------ Step          29920 ----- CPU =     15101.27 (sec) -------------
TotEng   =   -379441.0776 KinEng   =    171018.2957 Temp     =       300.1642 
PotEng   =   -550459.3733 E_bond   =     68727.8397 E_angle  =      5442.7804 
E_dihed  =      9091.5997 E_impro  =         0.0000 E_vdwl   =     97112.8815 
E_coul   =    984647.3118 E_long   =  -1715481.7864 Press    =       -94.8146
------------ Step          29925 ----- CPU =     15106.65 (sec) -------------
TotEng   =   -379586.6525 KinEng   =    170947.6673 Temp     =       300.0403 
PotEng   =   -550534.3198 E_bond   =     69299.9326 E_angle  =      5433.0135 
E_dihed  =      9106.4371 E_impro  =         0.0000 E_vdwl   =     97266.8449 
E_coul   =    983849.1627 E_long   =  -1715489.7105 Press    =      -118.3720
------------ Step          29930 ----- CPU =     15113.09 (sec) -------------
TotEng   =   -379539.3142 KinEng   =    170808.5949 Temp     =       299.7962 
PotEng   =   -550347.9091 E_bond   =     69481.5705 E_angle  =      5461.2433 
E_dihed  =      9094.0620 E_impro  =         0.0000 E_vdwl   =     97353.5116 
E_coul   =    983748.0594 E_long   =  -1715486.3559 Press    =      -133.9863
------------ Step          29935 ----- CPU =     15120.51 (sec) -------------
TotEng   =   -379780.3750 KinEng   =    171075.6832 Temp     =       300.2650 
PotEng   =   -550856.0583 E_bond   =     68764.3572 E_angle  =      5427.1016 
E_dihed  =      9081.2527 E_impro  =         0.0000 E_vdwl   =     97387.1899 
E_coul   =    983979.1873 E_long   =  -1715495.1469 Press    =       -95.5436
------------ Step          29940 ----- CPU =     15125.48 (sec) -------------
TotEng   =   -379609.8615 KinEng   =    170924.4603 Temp     =       299.9996 
PotEng   =   -550534.3218 E_bond   =     69439.2083 E_angle  =      5458.5460 
E_dihed  =      9085.2118 E_impro  =         0.0000 E_vdwl   =     97434.1308 
E_coul   =    983549.3699 E_long   =  -1715500.7886 Press    =      -150.3317
------------ Step          29945 ----- CPU =     15132.42 (sec) -------------
TotEng   =   -379565.0088 KinEng   =    171270.7990 Temp     =       300.6074 
PotEng   =   -550835.8078 E_bond   =     69488.8281 E_angle  =      5426.1436 
E_dihed  =      9070.2865 E_impro  =         0.0000 E_vdwl   =     97380.1289 
E_coul   =    983293.8928 E_long   =  -1715495.0878 Press    =      -168.2743
------------ Step          29950 ----- CPU =     15137.24 (sec) -------------
TotEng   =   -379386.6391 KinEng   =    171301.3091 Temp     =       300.6610 
PotEng   =   -550687.9481 E_bond   =     68950.4277 E_angle  =      5412.2094 
E_dihed  =      9073.6831 E_impro  =         0.0000 E_vdwl   =     97360.6263 
E_coul   =    984008.0753 E_long   =  -1715492.9700 Press    =      -100.2896
------------ Step          29955 ----- CPU =     15142.57 (sec) -------------
TotEng   =   -379334.6110 KinEng   =    171081.5464 Temp     =       300.2753 
PotEng   =   -550416.1574 E_bond   =     69361.8724 E_angle  =      5452.3039 
E_dihed  =      9111.3050 E_impro  =         0.0000 E_vdwl   =     97399.9980 
E_coul   =    983743.2264 E_long   =  -1715484.8631 Press    =      -110.2561
------------ Step          29960 ----- CPU =     15148.93 (sec) -------------
TotEng   =   -379183.0872 KinEng   =    171025.4634 Temp     =       300.1768 
PotEng   =   -550208.5506 E_bond   =     69469.8839 E_angle  =      5528.5191 
E_dihed  =      9126.2442 E_impro  =         0.0000 E_vdwl   =     97474.3928 
E_coul   =    983663.1056 E_long   =  -1715470.6962 Press    =      -112.4676
------------ Step          29965 ----- CPU =     15154.15 (sec) -------------
TotEng   =   -379126.2050 KinEng   =    170722.4328 Temp     =       299.6450 
PotEng   =   -549848.6378 E_bond   =     68945.4113 E_angle  =      5563.6227 
E_dihed  =      9122.8533 E_impro  =         0.0000 E_vdwl   =     97609.4568 
E_coul   =    984391.5014 E_long   =  -1715481.4834 Press    =       -18.1383
------------ Step          29970 ----- CPU =     15159.47 (sec) -------------
TotEng   =   -379274.7313 KinEng   =    170838.2311 Temp     =       299.8482 
PotEng   =   -550112.9624 E_bond   =     69341.8195 E_angle  =      5538.3146 
E_dihed  =      9127.6136 E_impro  =         0.0000 E_vdwl   =     97677.4593 
E_coul   =    983695.5915 E_long   =  -1715493.7610 Press    =       -70.2629
------------ Step          29975 ----- CPU =     15166.85 (sec) -------------
TotEng   =   -379240.2140 KinEng   =    171275.4611 Temp     =       300.6156 
PotEng   =   -550515.6751 E_bond   =     69623.6282 E_angle  =      5512.5974 
E_dihed  =      9092.5088 E_impro  =         0.0000 E_vdwl   =     97638.4330 
E_coul   =    983116.7233 E_long   =  -1715499.5658 Press    =       -84.3289
------------ Step          29980 ----- CPU =     15171.37 (sec) -------------
TotEng   =   -379300.0613 KinEng   =    171194.6292 Temp     =       300.4737 
PotEng   =   -550494.6905 E_bond   =     69263.6864 E_angle  =      5464.9102 
E_dihed  =      9050.1593 E_impro  =         0.0000 E_vdwl   =     97552.5032 
E_coul   =    983663.7497 E_long   =  -1715489.6994 Press    =       -89.1479
------------ Step          29985 ----- CPU =     15176.05 (sec) -------------
TotEng   =   -379290.3809 KinEng   =    171163.0119 Temp     =       300.4182 
PotEng   =   -550453.3928 E_bond   =     69177.6527 E_angle  =      5519.7278 
E_dihed  =      9060.8328 E_impro  =         0.0000 E_vdwl   =     97456.2452 
E_coul   =    983811.2886 E_long   =  -1715479.1399 Press    =       -88.3093
------------ Step          29990 ----- CPU =     15182.04 (sec) -------------
TotEng   =   -379324.2026 KinEng   =    171331.5454 Temp     =       300.7141 
PotEng   =   -550655.7480 E_bond   =     69631.7977 E_angle  =      5381.2996 
E_dihed  =      9065.9714 E_impro  =         0.0000 E_vdwl   =     97439.1373 
E_coul   =    983301.7813 E_long   =  -1715475.7353 Press    =      -164.1869
------------ Step          29995 ----- CPU =     15186.36 (sec) -------------
TotEng   =   -379366.4739 KinEng   =    171235.3895 Temp     =       300.5453 
PotEng   =   -550601.8634 E_bond   =     69215.3414 E_angle  =      5462.1422 
E_dihed  =      9060.0521 E_impro  =         0.0000 E_vdwl   =     97437.3435 
E_coul   =    983703.1837 E_long   =  -1715479.9263 Press    =       -95.1222
------------ Step          30000 ----- CPU =     15191.17 (sec) -------------
TotEng   =   -379453.7980 KinEng   =    171472.0350 Temp     =       300.9606 
PotEng   =   -550925.8330 E_bond   =     69016.9500 E_angle  =      5442.9011 
E_dihed  =      9097.4222 E_impro  =         0.0000 E_vdwl   =     97456.5234 
E_coul   =    983539.6825 E_long   =  -1715479.3121 Press    =       -96.4113
------------ Step          30005 ----- CPU =     15197.58 (sec) -------------
TotEng   =   -379568.3777 KinEng   =    171095.4631 Temp     =       300.2997 
PotEng   =   -550663.8408 E_bond   =     69514.1447 E_angle  =      5506.4682 
E_dihed  =      9124.5703 E_impro  =         0.0000 E_vdwl   =     97438.6602 
E_coul   =    983223.0067 E_long   =  -1715470.6911 Press    =      -120.6305
------------ Step          30010 ----- CPU =     15201.86 (sec) -------------
TotEng   =   -379501.9721 KinEng   =    170982.0176 Temp     =       300.1006 
PotEng   =   -550483.9897 E_bond   =     69213.8359 E_angle  =      5461.4629 
E_dihed  =      9127.6981 E_impro  =         0.0000 E_vdwl   =     97394.2021 
E_coul   =    983806.8776 E_long   =  -1715488.0662 Press    =       -85.3642
------------ Step          30015 ----- CPU =     15206.11 (sec) -------------
TotEng   =   -379386.1160 KinEng   =    171245.8941 Temp     =       300.5637 
PotEng   =   -550632.0102 E_bond   =     69106.1460 E_angle  =      5451.5945 
E_dihed  =      9129.5212 E_impro  =         0.0000 E_vdwl   =     97379.3333 
E_coul   =    983788.3282 E_long   =  -1715486.9333 Press    =      -112.6109
------------ Step          30020 ----- CPU =      15211.9 (sec) -------------
TotEng   =   -379424.6671 KinEng   =    170769.5044 Temp     =       299.7276 
PotEng   =   -550194.1716 E_bond   =     69592.0947 E_angle  =      5535.1492 
E_dihed  =      9114.5584 E_impro  =         0.0000 E_vdwl   =     97315.5283 
E_coul   =    983719.4397 E_long   =  -1715470.9419 Press    =      -158.5809
------------ Step          30025 ----- CPU =     15216.29 (sec) -------------
TotEng   =   -379205.2185 KinEng   =    170715.1854 Temp     =       299.6322 
PotEng   =   -549920.4039 E_bond   =     69073.3191 E_angle  =      5420.2354 
E_dihed  =      9094.4446 E_impro  =         0.0000 E_vdwl   =     97261.7750 
E_coul   =    984679.3690 E_long   =  -1715449.5469 Press    =      -124.6621
------------ Step          30030 ----- CPU =     15222.11 (sec) -------------
TotEng   =   -379273.5922 KinEng   =    171039.2382 Temp     =       300.2010 
PotEng   =   -550312.8304 E_bond   =     68973.5137 E_angle  =      5495.0315 
E_dihed  =      9102.5822 E_impro  =         0.0000 E_vdwl   =     97207.3389 
E_coul   =    984343.6573 E_long   =  -1715434.9538 Press    =      -107.4258
------------ Step          30035 ----- CPU =     15226.73 (sec) -------------
TotEng   =   -378949.5285 KinEng   =    170850.5002 Temp     =       299.8697 
PotEng   =   -549800.0287 E_bond   =     69596.2494 E_angle  =      5527.8024 
E_dihed  =      9096.4767 E_impro  =         0.0000 E_vdwl   =     97125.3490 
E_coul   =    984290.8714 E_long   =  -1715436.7776 Press    =      -124.6043
------------ Step          30040 ----- CPU =     15231.02 (sec) -------------
TotEng   =   -379080.9211 KinEng   =    170976.4799 Temp     =       300.0909 
PotEng   =   -550057.4010 E_bond   =     69213.3372 E_angle  =      5528.2139 
E_dihed  =      9085.3951 E_impro  =         0.0000 E_vdwl   =     97055.1954 
E_coul   =    984505.3445 E_long   =  -1715444.8870 Press    =       -77.5556
------------ Step          30045 ----- CPU =     15236.87 (sec) -------------
TotEng   =   -379059.2739 KinEng   =    171451.2462 Temp     =       300.9241 
PotEng   =   -550510.5201 E_bond   =     68996.9501 E_angle  =      5489.9098 
E_dihed  =      9096.6937 E_impro  =         0.0000 E_vdwl   =     97016.1990 
E_coul   =    984361.0874 E_long   =  -1715471.3602 Press    =       -59.2078
------------ Step          30050 ----- CPU =     15241.42 (sec) -------------
TotEng   =   -379295.7201 KinEng   =    171130.3038 Temp     =       300.3608 
PotEng   =   -550426.0239 E_bond   =     69772.8207 E_angle  =      5479.2822 
E_dihed  =      9102.8039 E_impro  =         0.0000 E_vdwl   =     96958.7388 
E_coul   =    983754.4436 E_long   =  -1715494.1132 Press    =      -165.0314
------------ Step          30055 ----- CPU =     15246.19 (sec) -------------
TotEng   =   -379388.9905 KinEng   =    171496.6160 Temp     =       301.0038 
PotEng   =   -550885.6065 E_bond   =     69112.5388 E_angle  =      5492.7040 
E_dihed  =      9110.8476 E_impro  =         0.0000 E_vdwl   =     96924.4192 
E_coul   =    983973.4063 E_long   =  -1715499.5223 Press    =      -127.5877
------------ Step          30060 ----- CPU =     15252.19 (sec) -------------
TotEng   =   -379363.6410 KinEng   =    171499.7579 Temp     =       301.0093 
PotEng   =   -550863.3989 E_bond   =     69291.3562 E_angle  =      5617.2491 
E_dihed  =      9129.4430 E_impro  =         0.0000 E_vdwl   =     96914.9820 
E_coul   =    983670.5328 E_long   =  -1715486.9621 Press    =      -210.3451
------------ Step          30065 ----- CPU =     15256.73 (sec) -------------
TotEng   =   -379349.4746 KinEng   =    171399.8231 Temp     =       300.8339 
PotEng   =   -550749.2976 E_bond   =     69824.6561 E_angle  =      5492.9187 
E_dihed  =      9138.5722 E_impro  =         0.0000 E_vdwl   =     96933.7797 
E_coul   =    983351.6171 E_long   =  -1715490.8414 Press    =      -211.3754
------------ Step          30070 ----- CPU =     15261.55 (sec) -------------
TotEng   =   -379176.5327 KinEng   =    171509.3372 Temp     =       301.0261 
PotEng   =   -550685.8699 E_bond   =     69069.0148 E_angle  =      5428.2619 
E_dihed  =      9159.9461 E_impro  =         0.0000 E_vdwl   =     97026.1711 
E_coul   =    984124.3003 E_long   =  -1715493.5642 Press    =      -142.4490
------------ Step          30075 ----- CPU =      15267.3 (sec) -------------
TotEng   =   -379338.0652 KinEng   =    171339.1159 Temp     =       300.7273 
PotEng   =   -550677.1811 E_bond   =     69196.8807 E_angle  =      5437.3380 
E_dihed  =      9190.1031 E_impro  =         0.0000 E_vdwl   =     97127.4797 
E_coul   =    983871.9724 E_long   =  -1715500.9550 Press    =       -77.5791
------------ Step          30080 ----- CPU =     15271.61 (sec) -------------
TotEng   =   -379395.2191 KinEng   =    171179.5693 Temp     =       300.4473 
PotEng   =   -550574.7885 E_bond   =     69788.2687 E_angle  =      5425.5626 
E_dihed  =      9164.9674 E_impro  =         0.0000 E_vdwl   =     97158.3455 
E_coul   =    983377.8940 E_long   =  -1715489.8266 Press    =      -156.1857
------------ Step          30083 ----- CPU =     15274.37 (sec) -------------
TotEng   =   -379373.5494 KinEng   =    171116.3229 Temp     =       300.3363 
PotEng   =   -550489.8723 E_bond   =     69374.4859 E_angle  =      5485.6612 
E_dihed  =      9127.5602 E_impro  =         0.0000 E_vdwl   =     97160.2858 
E_coul   =    983854.1401 E_long   =  -1715492.0055 Press    =      -124.2633
Loop time of 15274.4 on 1 procs for 15000 steps with 191140 atoms

Performance: 0.085 ns/day, 282.859 hours/ns, 0.982 timesteps/s, 187.707 katom-step/s
94.5% CPU use with 1 MPI tasks x no OpenMP threads

MPI task timing breakdown:
Section |  min time  |  avg time  |  max time  |%varavg| %total
---------------------------------------------------------------
Pair    | 12946      | 12946      | 12946      |   0.0 | 84.76
Bond    | 44.489     | 44.489     | 44.489     |   0.0 |  0.29
Kspace  | 581.67     | 581.67     | 581.67     |   0.0 |  3.81
Neigh   | 1554.5     | 1554.5     | 1554.5     |   0.0 | 10.18
Comm    | 9.5651     | 9.5651     | 9.5651     |   0.0 |  0.06
Output  | 103.46     | 103.46     | 103.46     |   0.0 |  0.68
Modify  | 27.258     | 27.258     | 27.258     |   0.0 |  0.18
Other   |            | 7.598      |            |       |  0.05

Nlocal:         191140 ave      191140 max      191140 min
Histogram: 1 0 0 0 0 0 0 0 0 0
Nghost:          69482 ave       69482 max       69482 min
Histogram: 1 0 0 0 0 0 0 0 0 0
Neighs:    9.37739e+07 ave 9.37739e+07 max 9.37739e+07 min
Histogram: 1 0 0 0 0 0 0 0 0 0

Total # of neighbors = 93773927
Ave neighs/atom = 490.60336
Ave special neighs/atom = 2.5260437
Neighbor list builds = 1103
Dangerous builds = 0


shell ffmpeg -f image2 -pattern_type glob -framerate 30 -i 'img/\*.jpg' -c:v libx264 vid_out.mp4
shell mpv -loop vid_out.mp4
Total wall time: 10:58:41
